NORMAN_ID,NAME,SMILES,NEUTRAL_EXACT_MASS,FORMULA,StdInChI,CAS_RN,PUBCHEM_CID,InChIKey,CHEMSPIDER_ID,DTXSID,Preferable Ionization,MB_Records Positive Ionization,Adduct Positive Ionization,Ionisation type and collision energy Positive Ionization,Fragments Positive Ionization,Simplified_fragments_Positive,Institute Positive Ionization,MB_Records Negative Ionization,Adduct Negative Ionization,Ionisation type and collision energy Negative Ionization,Fragments Negative Ionization,Simplified_fragments_Negative,Institute Negative Ionization
stpQQR369,"Diphenhydramine|2-benzhydryloxy-N,N-dimethylethanamine",CN(C)CCOC(c1ccccc1)c1ccccc1,255.16231,C17H21NO,"InChI=1S/C17H21NO/c1-18(2)13-14-19-17(15-9-5-3-6-10-15)16-11-7-4-8-12-16/h3-12,17H,13-14H2,1-2H3",CAS_RN: 58-73-1,3100,ZZVUWRFHKOJYTH-UHFFFAOYSA-N,2989,DTXSID4022949,Positive/Negative,SM858902;EQ335201|EQ335202|EQ335203|EQ335204|EQ335205|EQ335206|EQ335207|EQ335208|EQ335209;UF411603|UF411604,[M+H]+;[M+H]+;[M+H]+,HCD35;HCD15|HCD30|HCD45|HCD60|HCD75|HCD90|HCD120|HCD150|HCD180;CID35|CID55,296.0699:134.06:198.0218;167.0855:88.0757:165.0695|167.0855:165.0698:88.0756|167.0855:165.07:152.0621|167.0855:165.07:152.0621|152.0621:165.07:167.0855|165.0699:152.0621:166.0777|165.0699:152.0621:128.0621|165.0699:152.0621:115.0543|165.0699:115.0543:163.0543;167.0856|167.0856,198.0218;167.0855;166.0777;165.0699;163.0543;152.0621;134.06;128.0621;115.0543;88.07565,CASMI_2016;Eawag;UFZ,SM858951,[M-H]-,HCD35,198.0231:134.061:294.0555,198.0231;134.061,CASMI_2016
stpQQR370,"Acetyl-sulfamethoxazole|N-[4-[(5-methyl-1,2-oxazol-3-yl)sulfamoyl]phenyl]acetamide",Cc1cc(no1)NS(=O)(=O)c2ccc(cc2)/N=C(\C)/O,295.06268,C12H13N3O4S,"InChI=1S/C12H13N3O4S/c1-8-7-12(14-19-8)15-20(17,18)11-5-3-10(4-6-11)13-9(2)16/h3-7H,1-2H3,(H,13,16)(H,14,15)",CAS_RN: 21312-10-7,65280,GXPIUNZCALHVBA-UHFFFAOYSA-N,58771,DTXSID8049044,Positive/Negative,AU201401|AU201402|AU201403|AU201404|AU201405;SM859002;EA029901|EA029902|EA029903|EA029904|EA029905|EA029906|EA029907|EA029908|EA029909|EA029910|EA029911|EA029912|EA029913|EA029914;UF411701|UF411702|UF411703|UF411704,[M+H]+;[M+H]+;[M+H]+;[M+H]+,CID10|CID20|CID30|CID40|CID50;HCD35;CID35|HCD15|HCD30|HCD45|HCD60|HCD75|HCD90|HCD15|HCD30|HCD45|HCD60|HCD75|HCD90|CID35;HCD55|HCD80|CID35|CID55,296.0707:297.072:298.0664|198.0209:296.0696:134.0591|134.0591:198.0207:160.086|134.0591:146.0705:160.0863|134.0591:146.0705:160.0851;325.171:109.0448:262.1026;136.0756:188.0818:236.0487|296.0699:136.0755:236.0488|296.07:198.022:136.0757|134.06:108.0443:198.0217|134.06:108.0443:65.0385|65.0386:134.06:108.0443|65.0386:108.0443:92.0494|296.0702:198.0219:136.0757|296.0699:198.0219:136.0757|134.06:108.0443:198.0218|134.06:65.0386:108.0444|65.0386:134.0599:108.0443|65.0386:108.0444:92.0494|136.0757:188.0818:236.0487;134.0602:108.0445:160.0872|108.0444:134.0601:92.0495|198.0221:188.082:136.0758|198.0222:188.0821:136.0759,262.1026;236.0487;198.0219;188.0819;160.08615;146.0705;136.0757;134.06;109.0448;108.0443;92.0494;65.0386,Athens_Univ;CASMI_2016;Eawag;UFZ,AU201451|AU201452|AU201453|AU201454;EA029951|EA029952|EA029953|EA029954|EA029955|EA029956|EA029957|EA029958|EA029959|EA029960|EA029961|EA029962;UF411751|UF411752|UF411753|UF411754,[M-H]-;[M-H]-;[M-H]-,CID10|CID20|CID30|CID40;CID35|HCD15|HCD30|HCD45|HCD60|HCD75|HCD90|HCD15|HCD30|HCD45|HCD60|HCD75;HCD55|HCD80|CID35|CID55,294.0535:198.0219:295.0562|198.0219:134.0602:199.0253|134.0608:198.0222|134.06;198.0231:134.061:150.0558|294.0542:198.0232:205.0171|198.0228:134.0613|198.0231:134.0611:92.0506|134.0613:92.0507|134.0611:92.0506|92.0508:134.0613:198.0306|294.0551:198.0232|198.0231:294.0556:134.0612|198.0229:134.0611:294.0558|134.061:92.0504:198.0301|134.061:92.0505;198.0229|198.023:134.061|198.023:134.0611|198.023:134.0612,294.0551;205.0171;199.0253;198.023;150.0558;134.0611;92.0506,Athens_Univ;Eawag;UFZ
stpQQR371,"Amitriptyline|3-(5,6-dihydrodibenzo[2,1-b:2`,1`-f][7]annulen-11-ylidene)-N,N-dimethylpropan-1-amine",CN(C)CCC=C1c2ccccc2CCc2ccccc12,277.18305,C20H23N,"InChI=1S/C20H23N/c1-21(2)15-7-12-20-18-10-5-3-8-16(18)13-14-17-9-4-6-11-19(17)20/h3-6,8-12H,7,13-15H2,1-2H3",CAS_RN: 50-48-6,2160,KRMDCWKBEZIMAB-UHFFFAOYSA-N,2075,DTXSID7022594,Positive,AU150406;SM859203;EA282101|EA282102|EA282103|EA282104|EA282105|EA282106|EA282107|EA282108|EA282109|EA282110|EA282111|EA282112|EA282113|EA282114,[M+H]+;[M+H]+;[M+H]+,CIDRAMP 20.8-31.2;HCD35;CID35|HCD15|HCD30|HCD45|HCD60|HCD75|HCD90|HCD15|HCD30|HCD45|HCD60|HCD75|HCD90|CID35,91.0538:278.1909:233.1328;278.1904:91.0542:233.1325;233.1328:117.07:105.07|278.1904:91.054:105.0695|278.1905:233.1325:117.0698|233.1325:105.0699:117.0699|91.0542:105.0699:117.0698|91.0543:105.0699:117.0699|91.0542:203.0854:191.0855|278.1906:233.133:91.0545|278.1904:233.1325:117.0698|233.1326:105.0699:117.0699|91.0542:105.0699:117.0699|91.0542:105.0699:191.0855|91.0543:203.0856:191.0856|233.1326:117.0699:105.0699,233.1326;203.0855;191.0855;117.0699;105.0699;91.0542,Athens_Univ;CASMI_2016;Eawag,NA,NA,NA,NA,NA,NA
stpQQR372,"Atorvastatin|(3R,5R)-7-[2-(4-fluorophenyl)-3-phenyl-4-(phenylcarbamoyl)-5-propan-2-ylpyrrol-1-yl]-3,5-dihydroxyheptanoic acid",CC(C)c1c(C(=O)Nc2ccccc2)c(c(-c2ccc(F)cc2)n1CC[C@@H](O)C[C@@H](O)CC(O)=O)-c1ccccc1,558.253,C33H35FN2O5,"InChI=1S/C33H35FN2O5/c1-21(2)31-30(33(41)35-25-11-7-4-8-12-25)29(22-9-5-3-6-10-22)32(23-13-15-24(34)16-14-23)36(31)18-17-26(37)19-27(38)20-28(39)40/h3-16,21,26-27,37-38H,17-20H2,1-2H3,(H,35,41)(H,39,40)/t26-,27-/m1/s1",CAS_RN: 134523-00-5,60823,XUKUURHRXDUEBC-KAYWLYCHSA-N,54810,DTXSID8029868,Positive/Negative,AU112901|AU112902|AU112903|AU112904|AU112905|AU112906;SM859301;EA281001|EA281002|EA281003|EA281004|EA281005|EA281006|EA281007|EA281008|EA281009|EA281010|EA281011|EA281012|EA281013|EA281014,[M+H]+;[M+H]+;[M+H]+,CID26.8-40.2|CID20|CID30|CID40|CID50|CID10;HCD35;CID35|HCD15|HCD30|HCD45|HCD60|HCD75|HCD90|HCD15|HCD30|HCD45|HCD60|HCD75|HCD90|CID35,440.2282:441.2316:292.1528|559.2646:440.2268:560.2674|440.2273:441.2301:422.2159|440.2266:292.1519:250.1043|250.1051:276.1209:292.1524|559.2646:560.2674:561.2694;250.1027:440.2234:559.2605;440.2237:466.2025:422.2125|559.2603:440.2237:466.202|440.2232:292.1497:422.2125|250.1027:276.1183:292.1497|250.1029:276.1186:249.0949|250.1027:276.1184:248.087|248.087:250.1027:235.0794|559.2597:440.2227:466.2025|440.2231:292.1496:422.2127|250.1027:276.1183:292.1496|250.1027:276.1184:249.0949|250.1027:276.1184:248.0869|248.087:235.0791:250.1026|440.2232:466.2022:422.2125,466.20235;441.23085;440.2237;422.2125;292.1497;276.1184;250.1027;249.0949;248.087;235.07925,Athens_Univ;CASMI_2016;Eawag,AU112951|AU112952|AU112953|AU112954|AU112955;SM859351;EA281051|EA281052|EA281053|EA281054|EA281055|EA281056|EA281057|EA281058|EA281059|EA281060|EA281061|EA281062|EA281063|EA281064,[M-H]-;[M-H]-;[M-H]-,CID10|CID20|CID30|CID40|CID50;HCD35;CID35|HCD15|HCD30|HCD45|HCD60|HCD75|HCD90|HCD15|HCD30|HCD45|HCD60|HCD75|HCD90|CID35,557.2408:558.2454|557.2391:558.2437:453.1882|453.1935:397.1686:557.241|397.1672:278.1301|278.1334:397.1674:279.1321;557.2457:278.135:397.1721;453.1982:397.1719:479.2135|557.2469|397.1729:453.1991:85.0293|278.1352:397.1721:85.0293|278.1354:92.051:262.1049|278.1353:262.1041:92.0504|262.1044:92.0503|557.2459|397.1724:453.1985:85.0296|278.135:397.1724:85.0292|278.135:262.1042:92.0507|278.1352:262.1037:92.0505|262.1039:92.0502:278.1345|453.198:397.1717:479.2136,557.24335;479.21355;453.1981;397.172;279.1321;278.135;262.10415;92.05045;85.0293,Athens_Univ;CASMI_2016;Eawag
stpQQR373,Bisoprolol|1-(propan-2-ylamino)-3-[4-(2-propan-2-yloxyethoxymethyl)phenoxy]propan-2-ol,CC(C)NCC(O)COc1ccc(COCCOC(C)C)cc1,325.22531,C18H31NO4,"InChI=1S/C18H31NO4/c1-14(2)19-11-17(20)13-23-18-7-5-16(6-8-18)12-21-9-10-22-15(3)4/h5-8,14-15,17,19-20H,9-13H2,1-4H3",CAS_RN: 66722-44-9,2405,VHYCDWMUTMEGQY-UHFFFAOYSA-N,2312,DTXSID6022682,Positive,SM859501;EQ301301|EQ301302|EQ301303|EQ301304|EQ301305|EQ301306;TUE00191|TUE00192|TUE00193,[M+H]+;[M+H]+;[M+H]+,HCD35;HCD15|HCD30|HCD45|HCD60|HCD75|HCD90;NA10.0V|NA20.0V|NA40.0V,326.2327:116.107:74.0601;326.2326:116.1069:222.1489|116.1069:326.2326:74.06|116.107:74.06:72.0808|74.06:116.107:72.0808|74.06:107.0492:56.0495|74.06:107.0492:56.0496;326.2331:116.1071:74.0601|116.1071:74.0603:326.2331|56.0495:74.0602:72.0808,222.1489;116.107;107.0492;74.06;72.0808;56.0495,CASMI_2016;Eawag;Env_Anal_Chem_U_Tuebingen,NA,NA,NA,NA,NA,NA
stpQQR374,Bupropion|2-(tert-butylamino)-1-(3-chlorophenyl)propan-1-one,CC(NC(C)(C)C)C(=O)c1cccc(Cl)c1,239.10769,C13H18ClNO,"InChI=1S/C13H18ClNO/c1-9(15-13(2,3)4)12(16)10-6-5-7-11(14)8-10/h5-9,15H,1-4H3",CAS_RN: 34841-39-9,444,SNPPWIUOZRMYNY-UHFFFAOYSA-N,431,DTXSID7022706,Positive,SM859601;EA280301|EA280302|EA280303|EA280304|EA280305|EA280306|EA280307|EA280308|EA280309|EA280310|EA280311|EA280312|EA280313|EA280314,[M+H]+;[M+H]+,HCD35;CID35|HCD15|HCD30|HCD45|HCD60|HCD75|HCD90|HCD15|HCD30|HCD45|HCD60|HCD75|HCD90|CID35,184.0524:166.0418:131.0729;184.0528:166.042:167.0258|240.1153:184.0524:166.0419|184.0525:166.0419:240.1141|166.042:184.0524:167.0258|131.0731:166.042:139.0311|131.073:139.031:166.0418|131.0731:130.0653:103.0544|240.1152:184.0525:166.0419|184.0525:166.042:240.1149|166.042:184.0524:167.0259|131.073:166.0419:139.031|131.0731:139.031:103.0543|131.073:130.0653:103.0543|184.0526:166.0418:167.0258,184.0525;167.0258;166.0419;139.031;131.073;130.0653;103.0543,CASMI_2016;Eawag,NA,NA,NA,NA,NA,NA
stpQQR375,"Desloratadine|8-chloro-11-piperidin-4-ylidene-5,6-dihydrobenzo[1,2]cyclohepta[2,4-b]pyridine",Clc1ccc2c(CCc3cccnc3C2=C2CCNCC2)c1,310.12368,C19H19ClN2,"InChI=1S/C19H19ClN2/c20-16-5-6-17-15(12-16)4-3-14-2-1-9-22-19(14)18(17)13-7-10-21-11-8-13/h1-2,5-6,9,12,21H,3-4,7-8,10-11H2",CAS_RN: 100643-71-8,124087,JAUOIFJMECXRGI-UHFFFAOYSA-N,110575,DTXSID1044196,Positive,SM859701,[M+H]+,HCD35,259.1355:311.1309:294.1043,294.1043;259.1355,CASMI_2016,NA,NA,NA,NA,NA,NA
stpQQR376,"fluconazole|2-(2,4-difluorophenyl)-1,3-bis(1,2,4-triazol-1-yl)propan-2-ol",OC(Cn1cncn1)(Cn1cncn1)c1ccc(F)cc1F,306.10407,C13H12F2N6O,"InChI=1S/C13H12F2N6O/c14-10-1-2-11(12(15)3-10)13(22,4-20-8-16-6-18-20)5-21-9-17-7-19-21/h1-3,6-9,22H,4-5H2",CAS_RN: 86386-73-4,3365,RFHAOTPXVQNOHP-UHFFFAOYSA-N,3248,DTXSID3020627,Positive/Negative,SM859801;EA032801|EA032802|EA032803|EA032804|EA032805|EA032806|EA032807|EA032808|EA032809|EA032810|EA032811|EA032812|EA032813|EA032814;ET230001,[M+H]+;[M+H]+;[M+H]+,HCD35;CID35|HCD15|HCD30|HCD45|HCD60|HCD75|HCD90|HCD15|HCD30|HCD45|HCD60|HCD75|HCD90|CID35;HCD35,307.1114:220.0681:238.0786;238.079:220.0684:289.101|307.1118:238.0779:220.0682|238.0788:220.0683:307.1115|220.0683:169.0461:238.0787|169.0461:220.0683:139.0355|139.0355:127.0354:121.0449|127.0355:139.0355:151.0355|307.1116:238.0785:220.068|238.0788:220.0682:307.1112|220.0681:169.046:238.0786|169.0461:220.0682:139.0354|139.0354:127.0354:121.0449|139.0354:127.0354:151.0354|238.0789:220.0683:289.1009;220.0679:238.0784:169.0458,289.10095;238.07865;220.0682;169.0461;151.03545;139.03545;127.0354;121.0449,CASMI_2016;Eawag;Eawag_Additional_Specs,SM859851;EA032851|EA032852|EA032853|EA032854|EA032855|EA032856|EA032857|EA032858|EA032859|EA032860|EA032861|EA032862|EA032863|EA032864,[M-H]-;[M-H]-,HCD35;CID35|HCD15|HCD30|HCD45|HCD60|HCD75|HCD90|HCD15|HCD30|HCD45|HCD60|HCD75|HCD90|CID35,191.0687:108.0192:122.0354;191.069:222.0485:108.0204|191.0689:305.0971:68.0255|191.0688:68.0254:122.0361|191.069:68.0255:122.0362|68.0255:191.0687:108.0204|68.0255:108.0204:94.0411|68.0255:93.0145:94.0413|191.069:305.0968:68.0255|191.069:68.0255:122.0361|191.0688:68.0255:122.036|68.0255:191.0686:108.0202|68.0255:94.041:93.0144|68.0255:93.0146:305.0961|191.0689:222.0488,305.0968;222.04865;191.0689;122.0361;108.0204;94.0411;93.0145;68.0255,CASMI_2016;Eawag
stpQQR377,"Lorazepam|7-chloro-5-(2-chlorophenyl)-3-hydroxy-1,3-dihydro-1,4-benzodiazepin-2-one",OC1N=C(c2ccccc2Cl)c2cc(Cl)ccc2NC1=O,320.01193,C15H10Cl2N2O2,"InChI=1S/C15H10Cl2N2O2/c16-8-5-6-12-10(7-8)13(19-15(21)14(20)18-12)9-3-1-2-4-11(9)17/h1-7,15,21H,(H,18,20)",CAS_RN: 846-49-1,3958,DIWRORZWFLOCLC-UHFFFAOYSA-N,3821,DTXSID7023225,Positive/Negative,AU151206;SM860002;EQ313801|EQ313802|EQ313803|EQ313804|EQ313805|EQ313806,[M+H]+;[M+H]+;[M+H]+,CIDRAMP 22.0-33.0;HCD35;HCD15|HCD30|HCD45|HCD60|HCD75|HCD90,99.0425:57.0687:55.0175;275.0137:321.0193:303.0087;321.0192:303.0087:275.0138|275.0137:303.0086:321.0191|275.0137:229.0528:303.0086|275.0137:229.0527:163.0057|229.0527:275.0137:163.0057|194.0838:229.0527:163.0057,303.00865;275.0137;229.0527;194.0838;163.0057;99.0425;57.0687;55.0175,Athens_Univ;CASMI_2016;Eawag,SM860053;EQ313851|EQ313852|EQ313853|EQ313854|EQ313855|EQ313856,[M-H]-;[M-H]-,HCD35;HCD15|HCD30|HCD45|HCD60|HCD75|HCD90,283.0281:319.0048:255.0337;283.0279:319.0045:291.0097|283.0279:102.035:255.0332|102.035:151.9909:283.0279|102.035:151.9909:179.0018|102.035:151.9909:179.0018|102.035:151.9909:179.0017,319.00465;291.0097;283.0279;255.03345;179.0018;151.9909;102.035,CASMI_2016;Eawag
stpQQR378,"Memantine|3,5-dimethyladamantan-1-amine",CC12CC3CC(C)(C1)CC(N)(C3)C2,179.1674,C12H21N,"InChI=1S/C12H21N/c1-10-3-9-4-11(2,6-10)8-12(13,5-9)7-10/h9H,3-8,13H2,1-2H3",CAS_RN: 41100-52-1,4054,BUGYDGFZZOZRHP-UHFFFAOYSA-N,3914,DTXSID5045174,Positive,SM860101;EQ335101|EQ335102|EQ335103|EQ335104|EQ335105|EQ335106|EQ335107|EQ335108|EQ335109,[M+H]+;[M+H]+,HCD35;HCD15|HCD30|HCD45|HCD60|HCD75|HCD90|HCD120|HCD150|HCD180,163.148:180.1746:107.0855;163.1481:180.1747:107.0853|163.1481:180.1747:107.0854|163.1481:107.0855:180.1747|163.1481:107.0855:93.0699|107.0855:163.1481:93.07|107.0855:91.0543:93.07|91.0543:107.0856:105.07|91.0543:65.0386:79.0542|91.0543:65.0386:95.0492,163.1481;107.0855;105.07;95.0492;93.07;91.0543;79.0542;65.0386,CASMI_2016;Eawag,NA,NA,NA,NA,NA,NA
stpQQR379,"Miconazole|1-[2-(2,4-dichlorophenyl)-2-[(2,4-dichlorophenyl)methoxy]ethyl]imidazole",Clc1ccc(COC(Cn2ccnc2)c2ccc(Cl)cc2Cl)c(Cl)c1,413.98602,C18H14Cl4N2O,"InChI=1S/C18H14Cl4N2O/c19-13-2-1-12(16(21)7-13)10-25-18(9-24-6-5-23-11-24)15-4-3-14(20)8-17(15)22/h1-8,11,18H,9-10H2",CAS_RN: 75319-47-0,4189,BYBLEWFAAKGYCD-UHFFFAOYSA-N,4044,DTXSID6023319,Positive,SM860201,[M+H]+,HCD35,158.9763:414.9933:69.0448,158.9763;69.0448,CASMI_2016,NA,NA,NA,NA,NA,NA
stpQQR380,"Oxazepam|7-chloro-3-hydroxy-5-phenyl-1,3-dihydro-1,4-benzodiazepin-2-one",OC1N=C(c2ccccc2)c2cc(Cl)ccc2NC1=O,286.05091,C15H11ClN2O2,"InChI=1S/C15H11ClN2O2/c16-10-6-7-12-11(8-10)13(9-4-2-1-3-5-9)18-15(20)14(19)17-12/h1-8,15,20H,(H,17,19)",CAS_RN: 604-75-1,4616,ADIMAYPTOBDMTL-UHFFFAOYSA-N,4455,DTXSID1021087,Positive/Negative,SM860402;EA274301|EA274302|EA274303|EA274304|EA274305|EA274306|EA274307|EA274308|EA274309|EA274310|EA274311|EA274312|EA274313|EA274314,[M+H]+;[M+H]+,HCD35;CID35|HCD15|HCD30|HCD45|HCD60|HCD75|HCD90|HCD15|HCD30|HCD45|HCD60|HCD75|HCD90|CID35,241.0526:287.0581:269.0475;269.0479:241.0525:166.0054|287.0583:269.0478:104.05|269.0476:287.0579:241.0526|241.0528:269.0474:231.0683|241.053:104.0496:231.0685|241.0527:104.0495:163.0057|104.0495:241.0528:163.0058|287.0585:269.0476:241.0532|287.0583:269.0478:241.0527|241.0529:269.0476:231.0684|241.0529:104.0495:231.0684|241.0527:104.0495:163.0058|104.0495:241.0526:163.0058|269.0478:241.0527,269.0476;241.0527;231.0684;166.0054;163.0058;104.0495,CASMI_2016;Eawag,SM860452;EA274351|EA274352|EA274353|EA274354|EA274356|EA274358|EA274359|EA274360|EA274361|EA274362|EA274364,[M-H]-;[M-H]-,HCD35;CID35|HCD15|HCD30|HCD45|HCD75|HCD15|HCD30|HCD45|HCD60|HCD75|CID35,285.0437:257.0489:179.0013;257.0488:242.0378:179.0018|285.0437:257.0485|285.0435:257.0485:242.0383|242.0382:179.0017:241.03|151.0065|285.0436:257.0485|285.0434:257.0483:179.0021|241.0297:257.048|151.0073:241.0305|241.0305|257.0487:242.0374,285.0436;257.0485;242.038;241.03025;179.00175;151.0069,CASMI_2016;Eawag
stpQQR381,"Temazepam|7-chloro-3-hydroxy-1-methyl-5-phenyl-3H-1,4-benzodiazepin-2-one",CN1c2ccc(Cl)cc2C(=NC(O)C1=O)c1ccccc1,300.06656,C16H13ClN2O2,"InChI=1S/C16H13ClN2O2/c1-19-13-8-7-11(17)9-12(13)14(18-15(20)16(19)21)10-5-3-2-4-6-10/h2-9,15,20H,1H3",CAS_RN: 846-50-4,5391,SEQDDYPDSLOBDC-UHFFFAOYSA-N,5198,DTXSID8021309,Positive,AU155701|AU155702|AU155703|AU155704|AU155705;SM860501,[M+H]+;[M+H]+,CID10|CID20|CID30|CID40|CID50;HCD35,301.0738:303.0714:302.0765|255.0685:283.0632:257.0653|255.0679:257.0652:256.071|255.0679:257.065:193.0875|255.068:177.0205:193.0876;255.0683:301.0739:283.0633,283.06325;257.0652;256.071;255.068;193.08755;177.0205,Athens_Univ;CASMI_2016,NA,NA,NA,NA,NA,NA
stpQQR382,Fenofibrate|propan-2-yl 2-[4-(4-chlorobenzoyl)phenoxy]-2-methylpropanoate,CC(C)OC(=O)C(C)(C)Oc1ccc(cc1)C(=O)c1ccc(Cl)cc1,360.11284,C20H21ClO4,"InChI=1S/C20H21ClO4/c1-13(2)24-19(23)20(3,4)25-17-11-7-15(8-12-17)18(22)14-5-9-16(21)10-6-14/h5-13H,1-4H3",CAS_RN: 49562-28-9,3339,YMTINGFKWWXKFG-UHFFFAOYSA-N,3222,DTXSID2029874,Positive,SM860602;EA033601|EA033602|EA033603|EA033604|EA033605|EA033606|EA033607|EA033608|EA033609|EA033610|EA033611|EA033612|EA033613|EA033614,[M+H]+;[M+H]+,HCD35;CID35|HCD15|HCD30|HCD45|HCD60|HCD75|HCD90|HCD15|HCD30|HCD45|HCD60|HCD75|HCD90|CID35,138.9945:233.0364:121.0284;233.0365:273.0675:319.0729|361.1201:233.0363:138.9946|233.0364:138.9945:121.0283|138.9947:233.0365:121.0285|138.9946:121.0284:233.0367|138.9946:121.0284:139.0061|139.0056:138.9945:121.0284|361.1202:233.0363:319.0738|233.0365:138.9945:121.0284|138.9945:233.0362:121.0284|138.9945:121.0284:233.0363|138.9945:121.0284:139.0057|139.0057:138.9945:121.0284|233.0365:319.0729:273.0675,319.0729;273.0675;233.0364;139.0057;138.9945;121.0284,CASMI_2016;Eawag,NA,NA,NA,NA,NA,NA
stpQQR383,Losartan|[2-butyl-5-chloro-3-[[4-[2-(2H-tetrazol-5-yl)phenyl]phenyl]methyl]imidazol-4-yl]methanol,CCCCC1=NC(Cl)=C(CO)N1CC1=CC=C(C=C1)C1=C(C=CC=C1)C1=NNN=N1,422.16219,C22H23ClN6O,"InChI=1S/C22H23ClN6O/c1-2-3-8-20-24-21(23)19(14-30)29(20)13-15-9-11-16(12-10-15)17-6-4-5-7-18(17)22-25-27-28-26-22/h4-7,9-12,30H,2-3,8,13-14H2,1H3,(H,25,26,27,28)",CAS_RN: 114798-26-4,3961,PSIFNNKUMBGKDQ-UHFFFAOYSA-N,3824,DTXSID7023227,Positive/Negative,SM860702;EQ279401|EQ279402|EQ279403|EQ279404|EQ279405|EQ279406|EQ279407|EQ279408|EQ279409,[M+H]+;[M+H]+,HCD35;HCD15|HCD30|HCD45|HCD60|HCD75|HCD90|HCD120|HCD150|HCD180,207.0916:405.1589:180.0807;405.1588:377.1528:207.0916|207.0916:235.0978:171.0683|207.0916:180.0807:206.0839|180.0807:206.0838:207.0916|205.0761:180.0807:190.0651|205.076:152.062:165.0698|152.062:205.076:169.0647|152.062:169.0647:150.0464|150.0464:163.0542:63.0229,405.15885;377.1528;235.0978;207.0916;206.08385;205.076;190.0651;180.0807;171.0683;169.0647;165.0698;163.0542;152.062;150.0464;63.0229,CASMI_2016;Eawag,SM860752;EQ279451|EQ279452|EQ279453|EQ279454|EQ279455|EQ279456|EQ279457|EQ279458|EQ279459,[M-H]-;[M-H]-,HCD35;HCD15|HCD30|HCD45|HCD60|HCD75|HCD90|HCD120|HCD150|HCD180,421.1552:127.0066:179.0867;421.1548:335.1319:179.0865|179.0866:127.0068:157.0537|127.0068:157.0538:179.0866|127.0068:157.0538:179.0866|127.0068:157.0537:113.999|127.0069:113.999:157.0538|127.0068:113.999:165.0705|127.0069:113.999:65.0145|127.0067:50.0035:65.9985,421.155;335.1319;179.0866;165.0705;157.0538;127.0068;113.999;65.9985;65.0145;50.0035,CASMI_2016;Eawag