NORMAN_ID,NAME,SMILES,NEUTRAL_EXACT_MASS,FORMULA,StdInChI,CAS_RN,PUBCHEM_CID,InChIKey,CHEMSPIDER_ID,DTXSID,Preferable Ionization,MB_Records Positive Ionization,Adduct Positive Ionization,Ionisation type and collision energy Positive Ionization,Fragments Positive Ionization,Simplified_fragments_Positive,Institute Positive Ionization,MB_Records Negative Ionization,Adduct Negative Ionization,Ionisation type and collision energy Negative Ionization,Fragments Negative Ionization,Simplified_fragments_Negative,Institute Negative Ionization
stpQQR434,Phthalamic acid|2-carbamoylbenzoic acid,NC(=O)C1=CC=CC=C1C(O)=O,165.04259,C8H7NO3,"InChI=1S/C8H7NO3/c9-7(10)5-3-1-2-4-6(5)8(11)12/h1-4H,(H2,9,10)(H,11,12)",CAS_RN: 94-71-3,6957,CYMRPDYINXWJFU-UHFFFAOYSA-N,6691,DTXSID0058980,Positive/Negative,SM870004,[M+H]+,HCD35,149.0234:148.0393:121.0285,149.0234;148.0393;121.0285,CASMI_2016,SM870051,[M-H]-,HCD35,164.0353,164.0353,CASMI_2016
stpQQR435,Ethylenethiourea|2-Imidazolidinethione|Imidazolidine-2-thione,S=C1NCCN1,102.02517,C3H6N2S,"InChI=1S/C3H6N2S/c6-3-4-1-2-5-3/h1-2H2,(H2,4,5,6)",CAS_RN: 96-45-7,2723650,PDQAZBWRQCGBEV-UHFFFAOYSA-N,2005851,DTXSID5020601,Positive,SM870403;EQ027101|EQ027102|EQ027103|EQ027104|EQ027105|EQ027106|EQ027107|EQ027108|EQ027109,[M+H]+;[M+H]+,HCD35;HCD15|HCD30|HCD45|HCD60|HCD75|HCD90|HCD120|HCD150|HCD180,103.0324:60.0558:86.0059;103.0324:86.0059:76.0215|103.0324:86.0059:76.0215|103.0324:86.0059:76.0215|103.0324:86.0059:76.0215|103.0324:86.0059:59.9902|103.0324:86.0059:59.9903|103.0325:86.0059:59.9903|59.9902:86.0059:58.995|59.9903:58.995:86.0059,86.0059;76.0215;60.0558;59.9903;58.995,CASMI_2016;Eawag,NA,NA,NA,NA,NA,NA
stpQQR436,Guanylurea|Amidinourea|Diaminomethylideneurea,NC(=N)NC(N)=O,102.05416,C2H6N4O,"InChI=1S/C2H6N4O/c3-1(4)6-2(5)7/h(H6,3,4,5,6,7)",CAS_RN: 926-72-7,8859,SQSPRWMERUQXNE-UHFFFAOYSA-N,8527,DTXSID3043811,Positive,SM870902;EQ325301|EQ325302|EQ325303|EQ325304;TUE00361|TUE00362|TUE00363,[M+H]+;[M+H]+;[M+H]+,HCD35;HCD15|HCD30|HCD45|HCD60;NA10.0V|NA20.0V|NA40.0V,60.0558:86.0349:103.0614;60.0556:86.0349:103.0615|60.0556:86.0349:103.0614|60.0556:86.0349:103.0614|60.0556:86.0349:103.0614;60.0558:86.0349:103.0614|60.0557:43.0288:86.0347|43.0287:44.0128:69.0085,86.0349;69.0085;60.0556;44.0128;43.02875,CASMI_2016;Eawag;Env_Anal_Chem_U_Tuebingen,NA,NA,NA,NA,NA,NA
stpQQR437,"1-(3-carboxypropyl)-3,7-dimethylxanthine|4-(3,7-dimethyl-2,6-dioxopurin-1-yl)butanoic acid",CN1C=NC2=C1C(=O)N(CCCC(O)=O)C(=O)N2C,266.1015,C11H14N4O4,"InChI=1S/C11H14N4O4/c1-13-6-12-9-8(13)10(18)15(11(19)14(9)2)5-3-4-7(16)17/h6H,3-5H2,1-2H3,(H,16,17)",CAS_RN: 6493-07-8,151419,WKASGTGXOGALBG-UHFFFAOYSA-N,133451,DTXSID40215232,Positive,SM871101,[M+H]+,HCD35,221.1033:249.0983:193.0721,249.0983;221.1033;193.0721,CASMI_2016,NA,NA,NA,NA,NA,NA
stpQQR438,"2-Hydroxybenzothiazole|Benzothiazolone|3H-1,3-benzothiazol-2-one",O=C1NC2=C(S1)C=CC=C2,151.00918,C7H5NOS,"InChI=1S/C7H5NOS/c9-7-8-5-3-1-2-4-6(5)10-7/h1-4H,(H,8,9)",CAS_RN: NA,13625,YEDUAINPPJYDJZ-UHFFFAOYSA-N,13036,DTXSID6061315,Positive/Negative,AU405901|AU405902|AU405903|AU405904;SM871201;EQ337501|EQ337502|EQ337503|EQ337504|EQ337505|EQ337506|EQ337507|EQ337508|EQ337509,[M+H]+;[M+H]+;[M+H]+,CID10|CID20|CID30|CID40;HCD35;HCD15|HCD30|HCD45|HCD60|HCD75|HCD90|HCD120|HCD150|HCD180,152.0169:153.0193:154.0125|152.0168:124.0218:153.0205|124.0217:152.0166:119.0372|124.0211:119.0367:132.9969;152.0164:124.0215:92.0495;152.0164:92.0495:124.0216|152.0164:124.0216:92.0495|152.0164:124.0216:92.0495|152.0164:124.0216:92.0495|152.0164:124.0216:92.0495|80.0494:124.0216:152.0165|80.0494:65.0386:91.0417|65.0386:80.0494:91.0417|65.0386:63.023:80.0495,132.9969;124.0216;119.03695;92.0495;91.0417;80.0494;65.0386;63.023,Athens_Univ;CASMI_2016;Eawag,AU405951|AU405952;EQ337551|EQ337552|EQ337553|EQ337554|EQ337555|EQ337556|EQ337557|EQ337558|EQ337559,[M-H]-;[M-H]-,CID10|CID20;HCD15|HCD30|HCD45|HCD60|HCD75|HCD90|HCD120|HCD150|HCD180,149.9997:151.003|149.9994;150.0019|150.0019|150.0019:122.0071|150.0019:122.0071:106.9962|150.0019:122.0071:106.9962|150.002:122.0071:106.9962|150.002:106.9962:56.9805|56.9805:90.0349:106.9962|56.9805:90.035:80.9804,150.0019;122.0071;106.9962;90.03495;80.9804;56.9805,Athens_Univ;Eawag
stpQQR439,Estrone,C[C@]12CC[C@H]3[C@@H](CCC4=CC(O)=CC=C34)[C@@H]1CCC2=O,270.16198,C18H22O2,"InChI=1S/C18H22O2/c1-18-9-8-14-13-5-3-12(19)10-11(13)2-4-15(14)16(18)6-7-17(18)20/h3,5,10,14-16,19H,2,4,6-9H2,1H3/t14-,15-,16+,18+/m1/s1",CAS_RN: 53-16-7,5870,DNXHEGUUPJUMQT-CBZIJGRNSA-N,5660,DTXSID4022367,Positive,SM871901,[M+H]+,HCD35,271.1694:253.1588:199.1119,253.1588;199.1119,CASMI_2016,NA,NA,NA,NA,NA,NA
stpQQR440,17-alpha-Ethinylestradiol,CC12CC[C@H]3[C@@H](CCC4=CC(O)=CC=C34)[C@@H]1CC[C@]2(O)C#C,296.17763,C20H24O2,"InChI=1S/C20H24O2/c1-3-20(22)11-9-18-17-6-4-13-12-14(21)5-7-15(13)16(17)8-10-19(18,20)2/h1,5,7,12,16-18,21-22H,4,6,8-11H2,2H3/t16-,17-,18+,19?,20-/m1/s1",CAS_RN: NA,57495718,BFPYWIDHMRZLRN-LXKKFAQKSA-N,NA,NA,Positive,SM872102,[M+H]+,HCD35,297.1851:121.1012:149.0961,149.0961;121.1012,CASMI_2016,NA,NA,NA,NA,NA,NA
stpQQR441,"Norethindrone|17-Ethynyl-17-hydroxyestr-4-en-3-one|17-ethynyl-17-hydroxy-13-methyl-1,2,6,7,8,9,10,11,12,14,15,16-dodecahydrocyclopenta[a]phenanthren-3-one",CC12CCC3C(CCC4=CC(=O)CCC34)C1CCC2(O)C#C,298.19328,C20H26O2,"InChI=1S/C20H26O2/c1-3-20(22)11-9-18-17-6-4-13-12-14(21)5-7-15(13)16(17)8-10-19(18,20)2/h1,12,15-18,22H,4-11H2,2H3",CAS_RN: 68-22-4,4536,VIKNJXKGJWUCNN-UHFFFAOYSA-N,4377,NA,Positive,SM872301,[M+H]+,HCD35,299.2007:109.0648:83.0492,109.0648;83.0492,CASMI_2016,NA,NA,NA,NA,NA,NA
stpQQR442,"Progesterone|(4-14c)pregn-4-ene-3,20-dione|17-acetyl-10,13-dimethyl-1,2,6,7,8,9,11,12,14,15,16,17-dodecahydrocyclopenta[a]phenanthren-3-one",CC(=O)C1CCC2C3CCC4=CC(=O)CCC4(C)C3CCC12C,314.22458,C21H30O2,"InChI=1S/C21H30O2/c1-13(22)17-6-7-18-16-5-4-14-12-15(23)8-10-20(14,2)19(16)9-11-21(17,18)3/h12,16-19H,4-11H2,1-3H3",CAS_RN: 57-83-0,4920,RJKFOVLPORLFTN-UHFFFAOYSA-N,4751,NA,Positive,SM872401,[M+H]+,HCD35,315.2319:97.0648:109.0648,109.0648;97.0648,CASMI_2016,NA,NA,NA,NA,NA,NA
stpQQR443,"Dexamethasone|9-Fluoro-11,17,21-trihydroxy-16-methylpregna-1,4-diene-3,20-dione|9-fluoro-11,17-dihydroxy-17-(2-hydroxyacetyl)-10,13,16-trimethyl-6,7,8,11,12,14,15,16-octahydrocyclopenta[a]phenanthren-3-one",CC1CC2C3CCC4=CC(=O)C=CC4(C)C3(F)C(O)CC2(C)C1(O)C(=O)CO,392.1999,C22H29FO5,"InChI=1S/C22H29FO5/c1-12-8-16-15-5-4-13-9-14(25)6-7-19(13,2)21(15,23)17(26)10-20(16,3)22(12,28)18(27)11-24/h6-7,9,12,15-17,24,26,28H,4-5,8,10-11H2,1-3H3",CAS_RN: 50-02-2,3003,UREBDLICKHMUKA-UHFFFAOYSA-N,2896,NA,Positive,SM872801;SM874301,[M+H]+;[M+H]+,HCD35;HCD35,355.1905:373.2013:147.0805;355.1905:373.2013:147.0805,373.2013;355.1905;147.0805,CASMI_2016;CASMI_2016,NA,NA,NA,NA,NA,NA
stpQQR444,"Testosterone|17-Hydroxyandrost-4-en-3-one|17-hydroxy-10,13-dimethyl-1,2,6,7,8,9,11,12,14,15,16,17-dodecahydrocyclopenta[a]phenanthren-3-one",CC12CCC3C(CCC4=CC(=O)CCC34C)C1CCC2O,288.20893,C19H28O2,"InChI=1S/C19H28O2/c1-18-9-7-13(20)11-12(18)3-4-14-15-5-6-17(21)19(15,2)10-8-16(14)18/h11,14-17,21H,3-10H2,1-2H3",CAS_RN: 58-22-0,5408,MUMGGOZAMZWBJJ-UHFFFAOYSA-N,5215,NA,Positive,SM873001,[M+H]+,HCD35,289.2163:97.0648:109.0648,109.0648;97.0648,CASMI_2016,NA,NA,NA,NA,NA,NA
stpQQR445,"Canrenone|Spirolactone SC 14266|10,13-dimethylspiro[2,8,9,11,12,14,15,16-octahydro-1H-cyclopenta[a]phenanthrene-17,5`-oxolane]-2`,3-dione",CC12CCC3C(C=CC4=CC(=O)CCC34C)C1CCC21CCC(=O)O1,340.20384,C22H28O3,"InChI=1S/C22H28O3/c1-20-9-5-15(23)13-14(20)3-4-16-17(20)6-10-21(2)18(16)7-11-22(21)12-8-19(24)25-22/h3-4,13,16-18H,5-12H2,1-2H3",CAS_RN: 976-71-6,319260,UJVLDDZCTMKXJK-UHFFFAOYSA-N,282625,NA,Positive,SM873101,[M+H]+,HCD35,341.2112:107.0855:187.1117,187.1117;107.0855,CASMI_2016,NA,NA,NA,NA,NA,NA
stpQQR446,"4-Androstene-3,17-dione|10,13-dimethyl-2,6,7,8,9,11,12,14,15,16-decahydro-1H-cyclopenta[a]phenanthrene-3,17-dione",CC12CCC3C(CCC4=CC(=O)CCC34C)C1CCC2=O,286.19328,C19H26O2,"InChI=1S/C19H26O2/c1-18-9-7-13(20)11-12(18)3-4-14-15-5-6-17(21)19(15,2)10-8-16(14)18/h11,14-16H,3-10H2,1-2H3",CAS_RN: 63-05-8,2193,AEMFNILZOJDQLW-UHFFFAOYSA-N,2108,NA,Positive,SM873201,[M+H]+,HCD35,287.2005:97.0648:109.0648,109.0648;97.0648,CASMI_2016,NA,NA,NA,NA,NA,NA
stpQQR447,"Triamcinolone|9-Fluoro-11,16,17,21-tetrahydroxypregna-1,4-diene-3,20-dione|9-fluoro-11,16,17-trihydroxy-17-(2-hydroxyacetyl)-10,13-dimethyl-6,7,8,11,12,14,15,16-octahydrocyclopenta[a]phenanthren-3-one",CC12CC(O)C3(F)C(CCC4=CC(=O)C=CC34C)C1CC(O)C2(O)C(=O)CO,394.17917,C21H27FO6,"InChI=1S/C21H27FO6/c1-18-6-5-12(24)7-11(18)3-4-13-14-8-15(25)21(28,17(27)10-23)19(14,2)9-16(26)20(13,18)22/h5-7,13-16,23,25-26,28H,3-4,8-10H2,1-2H3",CAS_RN: 124-94-7,5544,GFNANZIMVAIWHM-UHFFFAOYSA-N,5343,NA,Positive,SM873501,[M+H]+,HCD35,375.1803:357.1696:147.0804,375.1803;357.1696;147.0804,CASMI_2016,NA,NA,NA,NA,NA,NA
stpQQR448,"Norgestrel|13-ethyl-17-ethynyl-17-hydroxy-1,2,6,7,8,9,10,11,12,14,15,16-dodecahydrocyclopenta[a]phenanthren-3-one",CCC12CCC3C(CCC4=CC(=O)CCC34)C1CCC2(O)C#C,312.20893,C21H28O2,"InChI=1S/C21H28O2/c1-3-20-11-9-17-16-8-6-15(22)13-14(16)5-7-18(17)19(20)10-12-21(20,23)4-2/h2,13,16-19,23H,3,5-12H2,1H3",CAS_RN: 797-63-7,4542,WWYNJERNGUHSAO-UHFFFAOYSA-N,4383,NA,Positive,SM873701,[M+H]+,HCD35,313.2162:109.0648:245.19,245.19;109.0648,CASMI_2016,NA,NA,NA,NA,NA,NA
stpQQR449,"Exemestane|10,13-dimethyl-6-methylidene-7,8,9,11,12,14,15,16-octahydrocyclopenta[a]phenanthrene-3,17-dione",CC12CCC3C(CC(=C)C4=CC(=O)C=CC34C)C1CCC2=O,296.17763,C20H24O2,"InChI=1S/C20H24O2/c1-12-10-14-15-4-5-18(22)20(15,3)9-7-16(14)19(2)8-6-13(21)11-17(12)19/h6,8,11,14-16H,1,4-5,7,9-10H2,2-3H3",CAS_RN: 107868-30-4,4460995,BFYIZQONLCFLEV-UHFFFAOYSA-N,3659700,NA,Positive,SM873802,[M+H]+,HCD35,297.1851:121.1012:149.0961,149.0961;121.1012,CASMI_2016,NA,NA,NA,NA,NA,NA
stpQQR450,"Medroxyprogesterone|17-acetyl-17-hydroxy-6,10,13-trimethyl-2,6,7,8,9,11,12,14,15,16-decahydro-1H-cyclopenta[a]phenanthren-3-one|17-acetyl-17-hydroxy-6,10,13-trimethyl-2,6,7,8,9,11,12,14,15,16-decahydro-1H-cyclopenta[a]phenanthren-3-one",CC1CC2C3CCC(O)(C(C)=O)C3(C)CCC2C2(C)CCC(=O)C=C12,344.23514,C22H32O3,"InChI=1S/C22H32O3/c1-13-11-16-17(20(3)8-5-15(24)12-19(13)20)6-9-21(4)18(16)7-10-22(21,25)14(2)23/h12-13,16-18,25H,5-11H2,1-4H3",CAS_RN: 520-85-4,541103,FRQMUZJSZHZSGN-UHFFFAOYSA-N,471209,NA,Positive,SM873901,[M+H]+,HCD35,345.2424:123.0804:97.0648,123.0804;97.0648,CASMI_2016,NA,NA,NA,NA,NA,NA
stpQQR451,"Gestoden|13-ethyl-17-ethynyl-17-hydroxy-1,2,6,7,8,9,10,11,12,13,14,17-dodecahydro-3h-cyclopenta[a]phenanthren-3-one(non-preferred name)|13-ethyl-17-ethynyl-17-hydroxy-1,2,6,7,8,9,10,11,12,14-decahydrocyclopenta[a]phenanthren-3-one",CCC12CCC3C(CCC4=CC(=O)CCC34)C1C=CC2(O)C#C,310.19328,C21H26O2,"InChI=1S/C21H26O2/c1-3-20-11-9-17-16-8-6-15(22)13-14(16)5-7-18(17)19(20)10-12-21(20,23)4-2/h2,10,12-13,16-19,23H,3,5-9,11H2,1H3",CAS_RN: 60282-87-3,2999,SIGSPDASOTUPFS-UHFFFAOYSA-N,2892,NA,Positive,SM874002,[M+H]+,HCD35,311.2005:109.0648:81.0335,109.0648;81.0335,CASMI_2016,NA,NA,NA,NA,NA,NA
stpQQR452,Drospirenone,CC12CCC3C(C4CC4C4=CC(=O)CCC34C)C1C1CC1C21CCC(=O)O1,366.21949,C24H30O3,"InChI=1S/C24H30O3/c1-22-6-3-12(25)9-17(22)13-10-14(13)20-16(22)4-7-23(2)21(20)15-11-18(15)24(23)8-5-19(26)27-24/h9,13-16,18,20-21H,3-8,10-11H2,1-2H3",CAS_RN: 67392-87-4,12803450,METQSPRSQINEEU-UHFFFAOYSA-N,11266927,NA,Positive,SM874102,[M+H]+,HCD35,367.2269:97.0648:131.0855,131.0855;97.0648,CASMI_2016,NA,NA,NA,NA,NA,NA
stpQQR453,"Bethamethasone|9-Fluoro-11,17,21-trihydroxy-16-methylpregna-1,4-diene-3,20-dione|9-fluoro-11,17-dihydroxy-17-(2-hydroxyacetyl)-10,13,16-trimethyl-6,7,8,11,12,14,15,16-octahydrocyclopenta[a]phenanthren-3-one",CC1CC2C3CCC4=CC(=O)C=CC4(C)C3(F)C(O)CC2(C)C1(O)C(=O)CO,392.1999,C22H29FO5,"InChI=1S/C22H29FO5/c1-12-8-16-15-5-4-13-9-14(25)6-7-19(13,2)21(15,23)17(26)10-20(16,3)22(12,28)18(27)11-24/h6-7,9,12,15-17,24,26,28H,4-5,8,10-11H2,1-3H3",CAS_RN: 50-02-2,3003,UREBDLICKHMUKA-UHFFFAOYSA-N,2896,NA,Positive,SM872801;SM874301,[M+H]+;[M+H]+,HCD35;HCD35,355.1905:373.2013:147.0805;355.1905:373.2013:147.0805,373.2013;355.1905;147.0805,CASMI_2016;CASMI_2016,NA,NA,NA,NA,NA,NA
stpQQR454,"Prednisone|Fernisone|17-hydroxy-17-(2-hydroxyacetyl)-10,13-dimethyl-6,7,8,9,12,14,15,16-octahydrocyclopenta[a]phenanthrene-3,11-dione",CC12CC(=O)C3C(CCC4=CC(=O)C=CC34C)C1CCC2(O)C(=O)CO,358.17802,C21H26O5,"InChI=1S/C21H26O5/c1-19-7-5-13(23)9-12(19)3-4-14-15-6-8-21(26,17(25)11-22)20(15,2)10-16(24)18(14)19/h5,7,9,14-15,18,22,26H,3-4,6,8,10-11H2,1-2H3",CAS_RN: 53-03-2,4900,XOFYZVNMUHMLCC-UHFFFAOYSA-N,4731,NA,Positive/Negative,SM874401,[M+H]+,HCD35,359.1854:341.1749:147.0804,341.1749;147.0804,CASMI_2016,SM874454,[M-H]-,HCD35,327.1602:299.1656:123.0446,327.1602;299.1656;123.0446,CASMI_2016
stpQQR455,Cyproterone,CC(=O)C1(O)CCC2C3C=C(Cl)C4=CC(=O)C5CC5C4(C)C3CCC12C,374.16487,C22H27ClO3,"InChI=1S/C22H27ClO3/c1-11(24)22(26)7-5-14-12-9-18(23)17-10-19(25)13-8-16(13)21(17,3)15(12)4-6-20(14,22)2/h9-10,12-16,26H,4-8H2,1-3H3",CAS_RN: 2098-66-0,3015,DUSHUSLJJMDGTE-UHFFFAOYSA-N,2907,NA,Positive,SM874501,[M+H]+,HCD35,375.1722:321.185:279.1744,321.185;279.1744,CASMI_2016,NA,NA,NA,NA,NA,NA
stpQQR456,"Trenbolone|17-hydroxy-13-methyl-2,6,7,8,14,15,16,17-octahydro-1H-cyclopenta[a]phenanthren-3-one",CC12C=CC3=C4CCC(=O)C=C4CCC3C1CCC2O,270.16198,C18H22O2,"InChI=1S/C18H22O2/c1-18-9-8-14-13-5-3-12(19)10-11(13)2-4-15(14)16(18)6-7-17(18)20/h8-10,15-17,20H,2-7H2,1H3",CAS_RN: 80657-17-6,4092426,MEHHPFQKXOUFFV-UHFFFAOYSA-N,3306758,NA,Positive,SM874601,[M+H]+,HCD35,271.1694:253.1588:199.1119,253.1588;199.1119,CASMI_2016,NA,NA,NA,NA,NA,NA
stpQQR457,"Dydrogesterone|(8S,9R,10S,13S,14S,17S)-17-acetyl-10,13-dimethyl-1,2,8,9,11,12,14,15,16,17-decahydrocyclopenta[a]phenanthren-3-one",CC(=O)[C@H]1CC[C@H]2[C@@H]3C=CC4=CC(=O)CC[C@@]4(C)[C@@H]3CC[C@]12C,312.20893,C21H28O2,"InChI=1S/C21H28O2/c1-13(22)17-6-7-18-16-5-4-14-12-15(23)8-10-20(14,2)19(16)9-11-21(17,18)3/h4-5,12,16-19H,6-11H2,1-3H3/t16-,17+,18-,19+,20+,21+/m0/s1",CAS_RN: 152-62-5,9051,JGMOKGBVKVMRFX-HQZYFCCVSA-N,8699,DTXSID1022974,Positive,SM874701,[M+H]+,HCD35,313.2162:295.2058:85.0648,295.2058;85.0648,CASMI_2016,NA,NA,NA,NA,NA,NA
stpQQR458,"Hydrocortisonacetate|Hydrocortisone acetate|[2-[(8S,9S,10R,11S,13S,14S,17R)-11,17-dihydroxy-10,13-dimethyl-3-oxo-2,6,7,8,9,11,12,14,15,16-decahydro-1H-cyclopenta[a]phenanthren-17-yl]-2-oxoethyl] acetate",CC(=O)OCC(=O)[C@@]1(O)CC[C@H]2[C@@H]3CCC4=CC(=O)CC[C@]4(C)[C@H]3[C@@H](O)C[C@]12C,404.21989,C23H32O6,"InChI=1S/C23H32O6/c1-13(24)29-12-19(27)23(28)9-7-17-16-5-4-14-10-15(25)6-8-21(14,2)20(16)18(26)11-22(17,23)3/h10,16-18,20,26,28H,4-9,11-12H2,1-3H3/t16-,17-,18-,20+,21-,22-,23-/m0/s1",CAS_RN: 50-03-3,5744,ALEXXDVDDISNDU-JZYPGELDSA-N,5542,NA,Positive,SM874801,[M+H]+,HCD35,405.2272:121.0648:327.1955,327.1955;121.0648,CASMI_2016,NA,NA,NA,NA,NA,NA
stpQQR459,"Medroxyprogesteroneacetate|Medroxyprogesterone acetate|[(6S,8R,9S,10R,13S,14S,17R)-17-acetyl-6,10,13-trimethyl-3-oxo-2,6,7,8,9,11,12,14,15,16-decahydro-1H-cyclopenta[a]phenanthren-17-yl] acetate",C[C@H]1C[C@H]2[C@@H]3CC[C@](OC(C)=O)(C(C)=O)[C@@]3(C)CC[C@@H]2[C@@]2(C)CCC(=O)C=C12,386.24571,C24H34O4,"InChI=1S/C24H34O4/c1-14-12-18-19(22(4)9-6-17(27)13-21(14)22)7-10-23(5)20(18)8-11-24(23,15(2)25)28-16(3)26/h13-14,18-20H,6-12H2,1-5H3/t14-,18+,19-,20-,22+,23-,24-/m0/s1",CAS_RN: 71-58-9,6279,PSGAAPLEWMOORI-PEINSRQWSA-N,6043,DTXSID0025527,Positive,SM874903,[M+H]+,HCD35,387.253:123.0804:327.2319,327.2319;123.0804,CASMI_2016,NA,NA,NA,NA,NA,NA
stpQQR460,"Megestrol-17-acetate|Megestrol acetate|[(8R,9S,10R,13S,14S,17R)-17-acetyl-6,10,13-trimethyl-3-oxo-2,8,9,11,12,14,15,16-octahydro-1H-cyclopenta[a]phenanthren-17-yl] acetate",CC(=O)O[C@@]1(CC[C@H]2[C@@H]3C=C(C)C4=CC(=O)CC[C@]4(C)[C@H]3CC[C@]12C)C(C)=O,384.23006,C24H32O4,"InChI=1S/C24H32O4/c1-14-12-18-19(22(4)9-6-17(27)13-21(14)22)7-10-23(5)20(18)8-11-24(23,15(2)25)28-16(3)26/h12-13,18-20H,6-11H2,1-5H3/t18-,19+,20+,22-,23+,24+/m1/s1",CAS_RN: 595-33-5,11683,RQZAXGRLVPAYTJ-GQFGMJRRSA-N,11192,DTXSID9040683,Positive,SM875001,[M+H]+,HCD35,385.2373:325.2162:267.1743,325.2162;267.1743,CASMI_2016,NA,NA,NA,NA,NA,NA
stpQQR461,Dodecyl sulfate,CCCCCCCCCCCCOS(O)(=O)=O,266.1552,C12H26O4S,"InChI=1S/C12H26O4S/c1-2-3-4-5-6-7-8-9-10-11-12-16-17(13,14)15/h2-12H2,1H3,(H,13,14,15)",CAS_RN: 151-41-7,57468502,MOTZDAYCYVMXPC-UHFFFAOYSA-N,8448,DTXSID0042088,Negative,NA,NA,NA,NA,NA,NA,SM876153;ETS00007,[M-H]-;[M-H]-,HCD35;HCD60 NCE,265.1479;265.147:96.9602:125.615,265.14745;125.615;96.9602,CASMI_2016;Eawag_Additional_Specs2
stpQQR462,Dodecylbenzenesulfonic acid,CCCCCCCCCCCCC1=CC=C(C=C1)S(O)(=O)=O,326.19157,C18H30O3S,"InChI=1S/C18H30O3S/c1-2-3-4-5-6-7-8-9-10-11-12-17-13-15-18(16-14-17)22(19,20)21/h13-16H,2-12H2,1H3,(H,19,20,21)",CAS_RN: 121-65-3,8485,KWXICGTUELOLSQ-UHFFFAOYSA-N,8172,DTXSID8050443,Negative,NA,NA,NA,NA,NA,NA,SM876251,[M-H]-,HCD35,325.1842:183.0121:184.0199,325.1842;184.0199;183.0121,CASMI_2016
stpQQR463,Lauric isopropanolamide|N-(2-hydroxypropyl)dodecanamide,CCCCCCCCCCCC(=O)NCC(C)O,257.23548,C15H31NO2,"InChI=1S/C15H31NO2/c1-3-4-5-6-7-8-9-10-11-12-15(18)16-13-14(2)17/h14,17H,3-13H2,1-2H3,(H,16,18)",CAS_RN: 142-54-1,9903249,MMBILEWCGWTAOV-UHFFFAOYSA-N,8078903,DTXSID00861815,Positive,SM876601,[M+H]+,HCD35,76.0757:58.0653:258.2428,76.0757;58.0653,CASMI_2016,NA,NA,NA,NA,NA,NA
stpQQR464,"Lauryl diethanolamide|N,N-bis(2-hydroxyethyl)dodecanamide",CCCCCCCCCCCC(=O)N(CCO)CCO,287.24604,C16H33NO3,"InChI=1S/C16H33NO3/c1-2-3-4-5-6-7-8-9-10-11-16(20)17(12-14-18)13-15-19/h18-19H,2-15H2,1H3",CAS_RN: 120-40-1,8430,AOMUHOFOVNGZAN-UHFFFAOYSA-N,8123,DTXSID5025491,Positive,SM876702,[M+H]+,HCD35,106.0862:88.0757:288.2533,106.0862;88.0757,CASMI_2016,NA,NA,NA,NA,NA,NA
stpQQR465,"N,N-Dimethyldodecylamine N-oxide|Lauramine oxide|N,N-dimethyldodecan-1-amine oxide",CCCCCCCCCCCC[N+](C)(C)[O-],229.24056,C14H31NO,"InChI=1S/C14H31NO/c1-4-5-6-7-8-9-10-11-12-13-14-15(2,3)16/h4-14H2,1-3H3",CAS_RN: 1643-20-5,15433,SYELZBGXAIXKHU-UHFFFAOYSA-N,14688,DTXSID1020514,Positive,SM876801,[M+H]+,HCD35,230.2479:58.0653:62.0602,62.0602;58.0653,CASMI_2016,NA,NA,NA,NA,NA,NA
stpQQR466,"Perfluorodecanoic acid|Perfluorocapric acid|2,2,3,3,4,4,5,5,6,6,7,7,8,8,9,9,10,10,10-nonadecafluorodecanoic acid",OC(=O)C(F)(F)C(F)(F)C(F)(F)C(F)(F)C(F)(F)C(F)(F)C(F)(F)C(F)(F)C(F)(F)F,513.96732,C10HF19O2,"InChI=1S/C10HF19O2/c11-2(12,1(30)31)3(13,14)4(15,16)5(17,18)6(19,20)7(21,22)8(23,24)9(25,26)10(27,28)29/h(H,30,31)",CAS_RN: 335-76-2,9555,PCIUEQPBYFRTEM-UHFFFAOYSA-N,9181,DTXSID3031860,Negative,NA,NA,NA,NA,NA,NA,SM876951;EA272051|EA272052|EA272053|EA272058,[M-H]-;[M-H]-,HCD35;CID35|HCD15|HCD30|HCD15,468.9701:218.9862:268.9831;468.9703:218.986:268.9826|218.9862|468.9691|268.9823:218.9858,468.9701;268.9826;218.9861,CASMI_2016;Eawag
stpQQR467,"Perfluorohexanoic acid|2,2,3,3,4,4,5,5,6,6,6-undecafluorohexanoic acid",OC(=O)C(F)(F)C(F)(F)C(F)(F)C(F)(F)C(F)(F)F,313.98009,C6HF11O2,"InChI=1S/C6HF11O2/c7-2(8,1(18)19)3(9,10)4(11,12)5(13,14)6(15,16)17/h(H,18,19)",CAS_RN: 307-24-4,67542,PXUULQAPEKKVAH-UHFFFAOYSA-N,60864,DTXSID3031862,Negative,NA,NA,NA,NA,NA,NA,SM877154;EA271551|EA271552|EA271553|EA271554|EA271555|EA271557|EA271558|EA271559,[M-H]-;[M-H]-,HCD35;CID35|HCD15|HCD30|HCD45|HCD60|HCD90|HCD15|HCD30,268.9831:312.9727:225.9904;268.9834:312.9734|268.9833|118.9928|118.9921|118.9927|268.9836:312.9828|268.9828:312.9713|268.9821:118.9926:312.9834,312.9727;268.9832;225.9904;118.99265,CASMI_2016;Eawag
stpQQR468,"Perfluorooctanesulfonic acid|1,1,2,2,3,3,4,4,5,5,6,6,7,7,8,8,8-heptadecafluorooctane-1-sulfonic acid",OS(=O)(=O)C(F)(F)C(F)(F)C(F)(F)C(F)(F)C(F)(F)C(F)(F)C(F)(F)C(F)(F)F,499.93749,C8HF17O3S,"InChI=1S/C8HF17O3S/c9-1(10,3(13,14)5(17,18)7(21,22)23)2(11,12)4(15,16)6(19,20)8(24,25)29(26,27)28/h(H,26,27,28)",CAS_RN: 2795-39-3,74483,YFSUTJLHUFNCNZ-UHFFFAOYSA-N,67068,DTXSID3031864,Negative,NA,NA,NA,NA,NA,NA,SM877253,[M-H]-,HCD35,498.9313,498.9313,CASMI_2016