NORMAN_ID,NAME,SMILES,NEUTRAL_EXACT_MASS,FORMULA,StdInChI,CAS_RN,PUBCHEM_CID,InChIKey,CHEMSPIDER_ID,DTXSID,Preferable Ionization,MB_Records Positive Ionization,Adduct Positive Ionization,Ionisation type and collision energy Positive Ionization,Fragments Positive Ionization,Simplified_fragments_Positive,Institute Positive Ionization,MB_Records Negative Ionization,Adduct Negative Ionization,Ionisation type and collision energy Negative Ionization,Fragments Negative Ionization,Simplified_fragments_Negative,Institute Negative Ionization
stpQQR643,PRZ_M469,CCCN(CCOC1=C(Cl)C=C(Cl)C(OS(O)(=O)=O)=C1Cl)C(=O)N1C=CN=C1,470.9825,C15H16Cl3N3O6S,"InChI=1S/C15H16Cl3N3O6S/c1-2-4-20(15(22)21-5-3-19-9-21)6-7-26-13-10(16)8-11(17)14(12(13)18)27-28(23,24)25/h3,5,8-9H,2,4,6-7H2,1H3,(H,23,24,25)",CAS_RN: NA,NA,AGQNYUSTLRWZPV-UHFFFAOYSA-N,NA,DTXSID40891616,Negative,NA,NA,NA,NA,NA,NA,ET201451|ET201452|ET201453|ET201454,[M-H]-,HCD20|HCD30|HCD40|HCD60,390.0187:209.9045|209.9049:390.0189:67.0295|209.9049:390.0196:96.96|209.9049:96.9599:124.0076,390.0189;209.9049;124.0076;96.95995;67.0295,Eawag_Additional_Specs
stpQQR644,PRZ_M310,CCCN(CCOC1=C(Cl)C=C(Cl)C=C1Cl)C=O,309.009,C12H14Cl3NO2,"InChI=1S/C12H14Cl3NO2/c1-2-3-16(8-17)4-5-18-12-10(14)6-9(13)7-11(12)15/h6-8H,2-5H2,1H3",CAS_RN: NA,NA,UYGPHUXNXJCWGM-UHFFFAOYSA-N,34451941,DTXSID00891617,Positive,ET201501|ET201502|ET201503|ET201504|ET201505,[M+H]+,HCD10|HCD20|HCD30|HCD50|HCD70,310.0163:114.0914:282.0216|310.0164:114.0914:282.0215|114.0914:72.0444:282.0215|72.0444:114.0914:100.0757|72.0444:91.0543:105.07,282.0215;114.0914;105.07;100.0757;91.0543;72.0444,Eawag_Additional_Specs,NA,NA,NA,NA,NA,NA
stpQQR645,PRZ_M632b,CCCN(CCOC1=C(Cl)C=C(Cl)C(OC2O[C@H](COS(O)(=O)=O)[C@@H](O)[C@H](O)[C@H]2O)=C1Cl)C(=O)N1C=CN=C1,633.0354,C21H26Cl3N3O11S,"InChI=1S/C21H26Cl3N3O11S/c1-2-4-26(21(31)27-5-3-25-10-27)6-7-35-18-11(22)8-12(23)19(14(18)24)38-20-17(30)16(29)15(28)13(37-20)9-36-39(32,33)34/h3,5,8,10,13,15-17,20,28-30H,2,4,6-7,9H2,1H3,(H,32,33,34)/t13-,15-,16+,17-,20?/m1/s1",CAS_RN: NA,NA,UNCSXZRCRHPBJA-PQCYZMNFSA-N,NA,DTXSID80891615,Negative,NA,NA,NA,NA,NA,NA,ET201351|ET201352|ET201353|ET201354|ET201355;ET201651|ET201652|ET201653|ET201654|ET201655,[M-H]-;[M-H]-,HCD20|HCD40|HCD60|HCD80|HCD90;HCD20|HCD40|HCD60|HCD80|HCD90,241.0031:96.9602|96.9602:241.0032:67.0295|96.9602:241.0033:79.9571|96.9602:79.9571:87.0086|96.9602:79.9571:87.0085;241.0031:96.9602|241.0031:96.9602:79.9571|96.9602:241.0032:79.9571|96.9602:79.9571:80.965|96.9602:79.9571:87.0086,241.00315;96.9602;87.0086;80.965;79.9571;67.0295,Eawag_Additional_Specs;Eawag_Additional_Specs
stpQQR646,PRZ_M477,CCCN(CCOC1=C(Cl)C=C(O)C(SCC(N)C(O)=O)=C1Cl)C(=O)N1C=CN=C1,476.0688,C18H22Cl2N4O5S,"InChI=1S/C18H22Cl2N4O5S/c1-2-4-23(18(28)24-5-3-22-10-24)6-7-29-15-11(19)8-13(25)16(14(15)20)30-9-12(21)17(26)27/h3,5,8,10,12,25H,2,4,6-7,9,21H2,1H3,(H,26,27)",CAS_RN: NA,NA,IENWMYMSXABSSK-UHFFFAOYSA-N,NA,NA,Positive,ET201701|ET201702|ET201703|ET201704|ET201705,[M+H]+,HCD10|HCD20|HCD30|HCD50|HCD70,477.076:381.044:409.0387|337.0539:381.0446:86.0965|337.0539:294.0118:86.0964|86.0964:70.0651:72.0808|70.0651:86.0964:84.0808,409.0387;381.0443;337.0539;294.0118;86.0964;84.0808;72.0808;70.0651,Eawag_Additional_Specs,NA,NA,NA,NA,NA,NA
stpQQR647,PRZ_M573,[H]N([H])[C@@H](CCC(=O)N([H])[C@@H](CSC(=O)NCCOC1=C(Cl)C=C(Cl)C=C1Cl)C(=O)N([H])CC(O)=O)C(O)=O,572.0302,C19H23Cl3N4O8S,"InChI=1S/C19H23Cl3N4O8S/c20-9-5-10(21)16(11(22)6-9)34-4-3-24-19(33)35-8-13(17(30)25-7-15(28)29)26-14(27)2-1-12(23)18(31)32/h5-6,12-13H,1-4,7-8,23H2,(H,24,33)(H,25,30)(H,26,27)(H,28,29)(H,31,32)/t12-,13-/m0/s1",CAS_RN: NA,NA,HZMMMVGQXDUITB-STQMWFEESA-N,NA,NA,Positive,ET201801|ET201802|ET201803|ET201804|ET201805,[M+H]+,HCD10|HCD20|HCD30|HCD50|HCD70,573.0373:443.9949:340.9681|179.0485:443.9949:340.9682|76.0215:86.0964:162.0218|76.0215:70.0651:86.0964|70.0651:76.0215:86.0964,443.9949;340.96815;179.0485;162.0218;86.0964;76.0215;70.0651,Eawag_Additional_Specs,NA,NA,NA,NA,NA,NA
stpQQR648,"Cyproconazole (CP)|Cyproconazole|2-(4-chlorophenyl)-3-cyclopropyl-1-(1,2,4-triazol-1-yl)butan-2-ol",CC(C1CC1)C(O)(CN1C=NC=N1)C1=CC=C(Cl)C=C1,291.1138,C15H18ClN3O,"InChI=1S/C15H18ClN3O/c1-11(12-2-3-12)15(20,8-19-10-17-9-18-19)13-4-6-14(16)7-5-13/h4-7,9-12,20H,2-3,8H2,1H3",CAS_RN: 94361-06-5,NA,UFNOUKDBUJZYDE-UHFFFAOYSA-N,77706,DTXSID0032601,Positive,EA008601|EA008602|EA008603|EA008604|EA008605|EA008606|EA008607|EA008608|EA008609|EA008610|EA008611|EA008612|EA008613|EA008614;ET210001,[M+H]+;[M+H]+,CID35|HCD15|HCD30|HCD45|HCD60|HCD75|HCD90|HCD15|HCD30|HCD45|HCD60|HCD75|HCD90|CID35;HCD40,125.0152:138.9946|292.1212:70.0399:125.0147|70.04:292.1212:125.0152|70.04:125.0153:138.9944|70.04:125.0153:138.9945|125.0153:70.04:138.9945|125.0153:70.04:89.0386|292.1212:70.0399:125.0147|70.04:292.1211:125.0152|70.04:125.0153:138.9945|70.04:125.0153:138.9945|125.0153:70.04:138.9945|125.0153:70.04:89.0386|125.0153:138.9946:165.0466;70.04:125.0152:138.9945,165.0466;138.9945;125.0153;89.0386;70.04,Eawag;Eawag_Additional_Specs,NA,NA,NA,NA,NA,NA
stpQQR649,CP_M308a,OCC(C1CC1)C(O)(CN1C=NC=N1)C1=CC=C(Cl)C=C1,307.1088,C15H18ClN3O2,"InChI=1S/C15H18ClN3O2/c16-13-5-3-12(4-6-13)15(21,8-19-10-17-9-18-19)14(7-20)11-1-2-11/h3-6,9-11,14,20-21H,1-2,7-8H2",CAS_RN: NA,NA,IVFRBVSPAOYOOK-UHFFFAOYSA-N,NA,NA,Positive,ET210101,[M+H]+,HCD35,70.04:125.0152:308.1159,125.0152;70.04,Eawag_Additional_Specs,NA,NA,NA,NA,NA,NA
stpQQR650,CP_M308b,CC(C1CC1)C(O)(CN1N=CN=C1O)C1=CC=C(Cl)C=C1,307.1088,C15H18ClN3O2,"InChI=1S/C15H18ClN3O2/c1-10(11-2-3-11)15(21,8-19-14(20)17-9-18-19)12-4-6-13(16)7-5-12/h4-7,9-11,21H,2-3,8H2,1H3,(H,17,18,20)",CAS_RN: NA,NA,PCNSTTQWJVIKMC-UHFFFAOYSA-N,NA,NA,Positive,ET210201,[M+H]+,HCD35,86.0349:219.1744:125.0152,219.1744;125.0152;86.0349,Eawag_Additional_Specs,NA,NA,NA,NA,NA,NA
stpQQR651,CP_M308c,CC(C1CC1)C(O)(CN1C=NC(O)=N1)C1=CC=C(Cl)C=C1,307.1088,C15H18ClN3O2,"InChI=1S/C15H18ClN3O2/c1-10(11-2-3-11)15(21,8-19-9-17-14(20)18-19)12-4-6-13(16)7-5-12/h4-7,9-11,21H,2-3,8H2,1H3,(H,18,20)",CAS_RN: NA,NA,KDVNSJWEDNCKDY-UHFFFAOYSA-N,NA,NA,Positive,ET210301,[M+H]+,HCD35,86.0349:125.0152:252.1018,252.1018;125.0152;86.0349,Eawag_Additional_Specs,NA,NA,NA,NA,NA,NA
stpQQR652,"Epoxiconazole (EP)|CHEBI:83761|1-[[(2R,3S)-3-(2-chlorophenyl)-2-(4-fluorophenyl)oxiran-2-yl]methyl]-1,2,4-triazole",FC1=CC=C(C=C1)[C@]1(CN2C=NC=N2)O[C@H]1C1=CC=CC=C1Cl,329.0731,C17H13ClFN3O,"InChI=1S/C17H13ClFN3O/c18-15-4-2-1-3-14(15)16-17(23-16,9-22-11-20-10-21-22)12-5-7-13(19)8-6-12/h1-8,10-11,16H,9H2/t16-,17-/m0/s1",CAS_RN: NA,NA,ZMYFCFLJBGAQRS-IRXDYDNUSA-N,9933985,DTXSID40891575,Positive,ET220001,[M+H]+,HCD25,121.0447:123.0239:330.0803,123.0239;121.0447,Eawag_Additional_Specs,NA,NA,NA,NA,NA,NA
stpQQR653,EP_M346,OC1=NN(C[C@]2(O[C@H]2C2=CC=CC=C2Cl)C2=CC=C(F)C=C2)C=N1,345.068,C17H13ClFN3O2,"InChI=1S/C17H13ClFN3O2/c18-14-4-2-1-3-13(14)15-17(24-15,9-22-10-20-16(23)21-22)11-5-7-12(19)8-6-11/h1-8,10,15H,9H2,(H,21,23)/t15-,17-/m0/s1",CAS_RN: NA,NA,ZSDOCYUTMYKRND-RDJZCZTQSA-N,NA,DTXSID80891630,Positive,ET220101|ET220102|ET220103|ET220104,[M+H]+,HCD30|HCD40|HCD50|HCD70,121.0448:98.9842:123.024|98.9842:121.0448:123.024|98.9842:121.0448:123.024|98.9842:121.0448:129.0447,129.0447;123.024;121.0448;98.9842,Eawag_Additional_Specs,NA,NA,NA,NA,NA,NA
stpQQR654,EP_M449,N[C@@H](CS[C@@](CN1C=NC=N1)(C(=O)C1=CC=CC=C1Cl)C1=CC=C(F)C=C1)C(O)=O,448.0772,C20H18ClFN4O3S,"InChI=1S/C20H18ClFN4O3S/c21-16-4-2-1-3-15(16)18(27)20(10-26-12-24-11-25-26,30-9-17(23)19(28)29)13-5-7-14(22)8-6-13/h1-8,11-12,17H,9-10,23H2,(H,28,29)/t17-,20+/m0/s1",CAS_RN: NA,NA,TZYAOSFLCQVQJN-FXAWDEMLSA-N,NA,NA,Positive,ET220201|ET220202|ET220203|ET220204,[M+H]+,HCD20|HCD30|HCD40|HCD60,449.0846:404.0631:432.058|263.0093:404.0632:291.0042|263.0093:251.0093:291.0042|183.0605:230.0293:123.0241,432.058;404.06315;291.0042;263.0093;251.0093;230.0293;183.0605;123.0241,Eawag_Additional_Specs,NA,NA,NA,NA,NA,NA
stpQQR655,EP_M451,N[C@@H](CS[C@@](CN1C=NC=N1)([C@H](O)C1=CC=CC=C1Cl)C1=CC=C(F)C=C1)C(O)=O,450.0929,C20H20ClFN4O3S,"InChI=1S/C20H20ClFN4O3S/c21-16-4-2-1-3-15(16)18(27)20(10-26-12-24-11-25-26,30-9-17(23)19(28)29)13-5-7-14(22)8-6-13/h1-8,11-12,17-18,27H,9-10,23H2,(H,28,29)/t17-,18+,20+/m0/s1",CAS_RN: NA,NA,HPPQENYNPCPJDE-NLWGTHIKSA-N,NA,DTXSID00891632,Positive,ET220301|ET220302|ET220303|ET220304,[M+H]+,HCD20|HCD30|HCD40|HCD60,364.0569:330.0804:243.0372|149.0399:243.0372:261.0478|243.0372:149.0399:121.0449|121.0448:243.0372:240.0403,364.0569;330.0804;261.0478;243.0372;240.0403;149.0399;121.04485,Eawag_Additional_Specs,NA,NA,NA,NA,NA,NA
stpQQR656,EP_M467,N[C@@H](CS[C@@](C(O)N1C=NC=N1)([C@H](O)C1=CC=CC=C1Cl)C1=CC=C(F)C=C1)C(O)=O,466.0878,C20H20ClFN4O4S,"InChI=1S/C20H20ClFN4O4S/c21-15-4-2-1-3-14(15)17(27)20(31-9-16(23)18(28)29,12-5-7-13(22)8-6-12)19(30)26-11-24-10-25-26/h1-8,10-11,16-17,19,27,30H,9,23H2,(H,28,29)/t16-,17+,19?,20+/m0/s1",CAS_RN: NA,NA,FFDPUOKMKYPWSA-UQHKUSSPSA-N,NA,DTXSID60891633,Positive,ET220401,[M+H]+,HCD15,330.0803:449.0849:404.0629,449.0849;404.0629;330.0803,Eawag_Additional_Specs,NA,NA,NA,NA,NA,NA
stpQQR657,EP_M424,OS(=O)(=O)OC(N1C=NC=N1)[C@]1(O[C@H]1C1=CC=CC=C1Cl)C1=CC=C(F)C=C1,425.0248,C17H13ClFN3O5S,"InChI=1S/C17H13ClFN3O5S/c18-14-4-2-1-3-13(14)15-17(26-15,11-5-7-12(19)8-6-11)16(27-28(23,24)25)22-10-20-9-21-22/h1-10,15-16H,(H,23,24,25)/t15-,16?,17-/m0/s1",CAS_RN: NA,NA,LRHLUQVZYPONJN-QRFGZVGRSA-N,NA,DTXSID20891634,Negative,NA,NA,NA,NA,NA,NA,ET220551|ET220552|ET220553|ET220554,[M-H]-,HCD20|HCD30|HCD40|HCD60,344.0612:424.0184|344.0613:239.0518:424.0192|239.0519:68.0248:344.0616|68.0248:239.0518:154.9909,424.0188;344.0613;239.0518;154.9909;68.0248,Eawag_Additional_Specs
stpQQR658,EP_M637,[H]N([H])[C@@H](CCC(=O)N([H])[C@@H](CS[C@@](CN1C=NC=N1)([C@H](O)C1=CC=CC=C1Cl)C1=CC=C(F)C=C1)C(=O)N([H])CC(O)=O)C(O)=O,636.1569,C27H30ClFN6O7S,"InChI=1S/C27H30ClFN6O7S/c28-19-4-2-1-3-18(19)24(39)27(13-35-15-31-14-33-35,16-5-7-17(29)8-6-16)43-12-21(25(40)32-11-23(37)38)34-22(36)10-9-20(30)26(41)42/h1-8,14-15,20-21,24,39H,9-13,30H2,(H,32,40)(H,34,36)(H,37,38)(H,41,42)/t20-,21-,24+,27+/m0/s1",CAS_RN: NA,NA,CQVYQYUSHAXATN-DWBNTRNDSA-N,NA,DTXSID80891635,Positive,ET220601|ET220602|ET220603|ET220604|ET220605,[M+H]+,HCD20|HCD40|HCD60|HCD80|HCD90,330.0808:508.1218:562.1323|149.04:121.0449:243.0376|121.0448:85.0397:70.0652|121.0449:70.0652:84.0445|121.0449:70.0652:183.0607,562.1323;508.1218;330.0808;243.0376;183.0607;149.04;121.0449;85.0397;84.0445;70.0652,Eawag_Additional_Specs,NA,NA,NA,NA,NA,NA
stpQQR659,"Fluconazole (FLU)|fluconazole|2-(2,4-difluorophenyl)-1,3-bis(1,2,4-triazol-1-yl)propan-2-ol",OC(CN1C=NC=N1)(CN1C=NC=N1)C1=C(F)C=C(F)C=C1,306.1041,C13H12F2N6O,"InChI=1S/C13H12F2N6O/c14-10-1-2-11(12(15)3-10)13(22,4-20-8-16-6-18-20)5-21-9-17-7-19-21/h1-3,6-9,22H,4-5H2",CAS_RN: 86386-73-4,NA,RFHAOTPXVQNOHP-UHFFFAOYSA-N,3248,DTXSID3020627,Positive/Negative,SM859801;EA032801|EA032802|EA032803|EA032804|EA032805|EA032806|EA032807|EA032808|EA032809|EA032810|EA032811|EA032812|EA032813|EA032814;ET230001,[M+H]+;[M+H]+;[M+H]+,HCD35;CID35|HCD15|HCD30|HCD45|HCD60|HCD75|HCD90|HCD15|HCD30|HCD45|HCD60|HCD75|HCD90|CID35;HCD35,307.1114:220.0681:238.0786;238.079:220.0684:289.101|307.1118:238.0779:220.0682|238.0788:220.0683:307.1115|220.0683:169.0461:238.0787|169.0461:220.0683:139.0355|139.0355:127.0354:121.0449|127.0355:139.0355:151.0355|307.1116:238.0785:220.068|238.0788:220.0682:307.1112|220.0681:169.046:238.0786|169.0461:220.0682:139.0354|139.0354:127.0354:121.0449|139.0354:127.0354:151.0354|238.0789:220.0683:289.1009;220.0679:238.0784:169.0458,289.10095;238.07865;220.0682;169.0461;151.03545;139.03545;127.0354;121.0449,CASMI_2016;Eawag;Eawag_Additional_Specs,SM859851;EA032851|EA032852|EA032853|EA032854|EA032855|EA032856|EA032857|EA032858|EA032859|EA032860|EA032861|EA032862|EA032863|EA032864,[M-H]-;[M-H]-,HCD35;CID35|HCD15|HCD30|HCD45|HCD60|HCD75|HCD90|HCD15|HCD30|HCD45|HCD60|HCD75|HCD90|CID35,191.0687:108.0192:122.0354;191.069:222.0485:108.0204|191.0689:305.0971:68.0255|191.0688:68.0254:122.0361|191.069:68.0255:122.0362|68.0255:191.0687:108.0204|68.0255:108.0204:94.0411|68.0255:93.0145:94.0413|191.069:305.0968:68.0255|191.069:68.0255:122.0361|191.0688:68.0255:122.036|68.0255:191.0686:108.0202|68.0255:94.041:93.0144|68.0255:93.0146:305.0961|191.0689:222.0488,305.0968;222.04865;191.0689;122.0361;108.0204;94.0411;93.0145;68.0255,CASMI_2016;Eawag
stpQQR660,"Propiconazole (PRP)|PROPICONAZOLE|1-[[2-(2,4-dichlorophenyl)-4-propyl-1,3-dioxolan-2-yl]methyl]-1,2,4-triazole",CCCC1COC(CN2C=NC=N2)(O1)C1=C(Cl)C=C(Cl)C=C1,341.0698,C15H17Cl2N3O2,"InChI=1S/C15H17Cl2N3O2/c1-2-3-12-7-21-15(22-12,8-20-10-18-9-19-20)13-5-4-11(16)6-14(13)17/h4-6,9-10,12H,2-3,7-8H2,1H3",CAS_RN: 60207-90-1,NA,STJLVHWMYQXCPB-UHFFFAOYSA-N,39402,DTXSID8024280,Positive,SM841502;EA021201|EA021202|EA021203|EA021204|EA021205|EA021206|EA021207|EA021208|EA021209|EA021210|EA021211|EA021212|EA021213|EA021214;ET240001|ET240002|ET240003|ET240004;UF403501|UF403502|UF403503|UF403504,[M+H]+;[M+H]+;[M+H]+;[M+H]+,HCD35;CID35|HCD15|HCD30|HCD45|HCD60|HCD75|HCD90|HCD15|HCD30|HCD45|HCD60|HCD75|HCD90|CID35;HCD30|HCD40|HCD50|HCD70;HCD55|HCD80|CID35|CID55,342.0772:158.9763:69.0699;158.9763:204.9817:273.044|342.0771:70.0399|342.077:158.9763:69.0699|158.9763:69.0699:186.9712|158.9764:69.0699:172.9556|158.9764:172.9558:69.0699|158.9764:172.9564:122.9996|342.0769:69.0697:273.0447|342.0766:158.9762:69.0699|158.9763:69.0699:186.9711|158.9763:69.0699:172.9555|158.9763:172.9555:69.0699|158.9763:172.9555:122.9996|158.9763:204.9818:273.0442;158.9762:69.0699:342.0768|158.9763:69.0699:186.9711|158.9761:69.0698:172.9553|158.9762:172.9554:69.0699;158.9761:172.9555:186.9712|158.9761:172.9554:70.0398|158.9762:204.9817:273.0442|158.9762:204.9818:273.0444,273.0442;204.98175;186.97115;172.9555;158.9763;122.9996;70.03985;69.0699,CASMI_2016;Eawag;Eawag_Additional_Specs;UFZ,NA,NA,NA,NA,NA,NA
stpQQR661,"PRP_M358a|CID 90950468|3-[2-(2,4-dichlorophenyl)-2-(1,2,4-triazol-1-ylmethyl)-1,3-dioxolan-4-yl]propan-1-ol",OCCCC1COC(CN2C=NC=N2)(O1)C1=C(Cl)C=C(Cl)C=C1,357.0647,C15H17Cl2N3O3,"InChI=1S/C15H17Cl2N3O3/c16-11-3-4-13(14(17)6-11)15(8-20-10-18-9-19-20)22-7-12(23-15)2-1-5-21/h3-4,6,9-10,12,21H,1-2,5,7-8H2",CAS_RN: NA,NA,GZZNFYOGUUPAEU-UHFFFAOYSA-N,NA,NA,Positive,ET240101|ET240102|ET240103|ET240104,[M+H]+,HCD20|HCD30|HCD40|HCD60,256.0036:358.0715:85.0647|256.0036:70.0399:85.0647|256.0036:158.9762:186.971|158.9763:186.971:70.04,256.0036;186.971;158.97625;85.0647;70.03995,Eawag_Additional_Specs,NA,NA,NA,NA,NA,NA
stpQQR662,"PRP_M358b|CID 91079068|1-[2-(2,4-dichlorophenyl)-2-(1,2,4-triazol-1-ylmethyl)-1,3-dioxolan-4-yl]propan-2-ol",CC(O)CC1COC(CN2C=NC=N2)(O1)C1=C(Cl)C=C(Cl)C=C1,357.0647,C15H17Cl2N3O3,"InChI=1S/C15H17Cl2N3O3/c1-10(21)4-12-6-22-15(23-12,7-20-9-18-8-19-20)13-3-2-11(16)5-14(13)17/h2-3,5,8-10,12,21H,4,6-7H2,1H3",CAS_RN: NA,NA,ACQHZORIRZCPLG-UHFFFAOYSA-N,NA,NA,Positive,ET240201|ET240202|ET240203|ET240204,[M+H]+,HCD20|HCD30|HCD40|HCD60,256.0036:358.0717:85.0647|256.0037:85.0648:158.9762|256.0037:158.9763:186.9711|158.9763:67.0543:70.04,256.0037;186.9711;158.9763;85.06475;70.04;67.0543,Eawag_Additional_Specs,NA,NA,NA,NA,NA,NA
stpQQR663,"PRP_M258|1-(2,4-dichlorophenyl)-2-(1H-1,2,4-triazol-1-yl)ethan-1-ol|1-(2,4-dichlorophenyl)-2-(1,2,4-triazol-1-yl)ethanol",OC(CN1C=NC=N1)C1=C(Cl)C=C(Cl)C=C1,257.0123,C10H9Cl2N3O,"InChI=1S/C10H9Cl2N3O/c11-7-1-2-8(9(12)3-7)10(16)4-15-6-13-5-14-15/h1-3,5-6,10,16H,4H2",CAS_RN: 58905-18-3,NA,XCWJBJOPHSVLGU-UHFFFAOYSA-N,576592,DTXSID90866718,Positive,ET240301|ET240302|ET240303|ET240304|ET240305,[M+H]+,HCD20|HCD30|HCD40|HCD50|HCD70,258.0195:70.0399:90.0174|70.0399:258.0196:90.0173|70.0399:125.0152:90.0173|70.0399:125.0152:170.9762|70.0399:125.0152:136.0074,170.9762;136.0074;125.0152;90.0173;70.0399,Eawag_Additional_Specs,NA,NA,NA,NA,NA,NA
stpQQR664,"PRP_M256|58905-16-1|1-(2,4-dichlorophenyl)-2-(1,2,4-triazol-1-yl)ethanone",ClC1=CC(Cl)=C(C=C1)C(=O)CN1C=NC=N1,254.9966,C10H7Cl2N3O,"InChI=1S/C10H7Cl2N3O/c11-7-1-2-8(9(12)3-7)10(16)4-15-6-13-5-14-15/h1-3,5-6H,4H2",CAS_RN: 593-80-6,NA,XOHMICFWUQPTNP-UHFFFAOYSA-N,646288,DTXSID50353396,Positive,ET240401|ET240402|ET240403|ET240404,[M+H]+,HCD50|HCD60|HCD70|HCD80,158.9762:186.971:256.0036|158.9762:151.0183:186.9711|158.9762:122.9995:151.0184|158.9762:122.9995:124.0073,186.97105;158.9762;151.01835;124.0073;122.9995,Eawag_Additional_Specs,NA,NA,NA,NA,NA,NA
stpQQR665,"Tebuconazole (TEB)|Tebuconazole|1-(4-chlorophenyl)-4,4-dimethyl-3-(1,2,4-triazol-1-ylmethyl)pentan-3-ol",CC(C)(C)C(O)(CCC1=CC=C(Cl)C=C1)CN1C=NC=N1,307.1451,C16H22ClN3O,"InChI=1S/C16H22ClN3O/c1-15(2,3)16(21,10-20-12-18-11-19-20)9-8-13-4-6-14(17)7-5-13/h4-7,11-12,21H,8-10H2,1-3H3",CAS_RN: 84808-29-7,NA,PXMNMQRDXWABCY-UHFFFAOYSA-N,77680,DTXSID9032113,Positive,SM842302;EA032701|EA032702|EA032703|EA032704|EA032705|EA032706|EA032707|EA032708|EA032709|EA032710|EA032711|EA032712|EA032713|EA032714;ET250001;UF404301|UF404302|UF404303|UF404304,[M+H]+;[M+H]+;[M+H]+;[M+H]+,HCD35;CID35|HCD15|HCD30|HCD45|HCD60|HCD75|HCD90|HCD15|HCD30|HCD45|HCD60|HCD75|HCD90|CID35;HCD35;HCD55|HCD80|CID35|CID55,70.04:308.1523:125.0152;290.1418:151.0309:165.046|308.1526|308.1523:70.04:125.0153|70.04:125.0153:308.1528|70.04:125.0153:151.0311|70.04:125.0152:151.0309|70.04:125.0152:116.062|308.1525:70.0398:125.0147|308.1526:70.04:125.0151|70.04:125.0153:151.031|70.04:125.0153:151.0309|70.04:125.0153:116.0621|70.04:125.0153:116.0621|290.1414:151.0309:165.0464;70.04:308.1524:125.0153;70.0398:125.0151:151.0308|70.0398:125.0151:116.0619|151.0308:290.1416:165.0465|151.0307:290.1417:165.0465,290.14165;165.04645;151.0309;125.0153;116.06205;70.04,CASMI_2016;Eawag;Eawag_Additional_Specs;UFZ,NA,NA,NA,NA,NA,NA
stpQQR666,TEB_M324a,CC(C)(CO)C(O)(CCC1=CC=C(Cl)C=C1)CN1C=NC=N1,323.1401,C16H22ClN3O2,"InChI=1S/C16H22ClN3O2/c1-15(2,10-21)16(22,9-20-12-18-11-19-20)8-7-13-3-5-14(17)6-4-13/h3-6,11-12,21-22H,7-10H2,1-2H3",CAS_RN: NA,NA,OIKHXEKXIIAQKY-UHFFFAOYSA-N,NA,NA,Positive,ET250101,[M+H]+,HCD30,70.0399:324.1472:179.062,179.062;70.0399,Eawag_Additional_Specs,NA,NA,NA,NA,NA,NA
stpQQR667,TEB_M388,CC(C)(C)C(CCC1=CC=C(Cl)C=C1)(CN1C=NC=N1)OP(O)(O)=O,387.1115,C16H23ClN3O4P,"InChI=1S/C16H23ClN3O4P/c1-15(2,3)16(24-25(21,22)23,10-20-12-18-11-19-20)9-8-13-4-6-14(17)7-5-13/h4-7,11-12H,8-10H2,1-3H3,(H2,21,22,23)",CAS_RN: NA,NA,NMJXDYGJGLTLDI-UHFFFAOYSA-N,NA,NA,Positive,ET250201|ET250202|ET250203|ET250204|ET250205,[M+H]+,HCD10|HCD20|HCD30|HCD50|HCD70,290.1418:105.0699:106.0732|290.1419:105.0699:83.0855|290.1419:83.0855:105.0699|125.0152:70.04:83.0855|125.0152:70.04:105.0699,290.1419;125.0152;106.0732;105.0699;83.0855;70.04,Eawag_Additional_Specs,NA,NA,NA,NA,NA,NA
stpQQR668,TEB_M404,CC(C)(CO)C(CCC1=CC=C(Cl)C=C1)(CN1C=NC=N1)OP(O)(O)=O,403.1064,C16H23ClN3O5P,"InChI=1S/C16H23ClN3O5P/c1-15(2,10-21)16(25-26(22,23)24,9-20-12-18-11-19-20)8-7-13-3-5-14(17)6-4-13/h3-6,11-12,21H,7-10H2,1-2H3,(H2,22,23,24)",CAS_RN: NA,NA,RSIWUZQNFRIBIY-UHFFFAOYSA-N,NA,NA,Positive,ET250301|ET250302|ET250303|ET250304|ET250305,[M+H]+,HCD10|HCD20|HCD30|HCD50|HCD70,404.1137:306.1368:288.1263|404.1137:306.1368:288.1262|306.1368:288.1263:70.04|125.0153:70.04:139.0309|125.0153:70.04:103.0543,306.1368;288.1263;139.0309;125.0153;103.0543;70.04,Eawag_Additional_Specs,NA,NA,NA,NA,NA,NA
stpQQR669,TEB_M324b *,CC(C)(C)C(O)(CCC1=CC=C(Cl)C=C1)CN1C=NC(O)=N1,323.1401,C16H22ClN3O2,"InChI=1S/C16H22ClN3O2/c1-15(2,3)16(22,10-20-11-18-14(21)19-20)9-8-12-4-6-13(17)7-5-12/h4-7,11,22H,8-10H2,1-3H3,(H,19,21)",CAS_RN: NA,NA,PEKHDQCGVPPILP-UHFFFAOYSA-N,NA,NA,Positive,ET250401,[M+H]+,HCD30,86.0349:324.1474:59.0493,86.0349;59.0493,Eawag_Additional_Specs,NA,NA,NA,NA,NA,NA
stpQQR670,TEB_M324c,CC(C)(C)C(O)(CC(O)C1=CC=C(Cl)C=C1)CN1C=NC=N1,323.1401,C16H22ClN3O2,"InChI=1S/C16H22ClN3O2/c1-15(2,3)16(22,9-20-11-18-10-19-20)8-14(21)12-4-6-13(17)7-5-12/h4-7,10-11,14,21-22H,8-9H2,1-3H3",CAS_RN: NA,NA,SCQIVKOIYXXGEW-UHFFFAOYSA-N,NA,NA,Positive,ET250501,[M+H]+,HCD30,70.04:324.1478:97.1011,97.1011;70.04,Eawag_Additional_Specs,NA,NA,NA,NA,NA,NA