NORMAN_ID,NAME,SMILES,NEUTRAL_EXACT_MASS,FORMULA,StdInChI,CAS_RN,PUBCHEM_CID,InChIKey,CHEMSPIDER_ID,DTXSID,Preferable Ionization,MB_Records Positive Ionization,Adduct Positive Ionization,Ionisation type and collision energy Positive Ionization,Fragments Positive Ionization,Simplified_fragments_Positive,Institute Positive Ionization,MB_Records Negative Ionization,Adduct Negative Ionization,Ionisation type and collision energy Negative Ionization,Fragments Negative Ionization,Simplified_fragments_Negative,Institute Negative Ionization
stpQQR940,"Dimethachlor OXA|2-[(2,6-dimethylphenyl)(2-methoxyethyl)amino]-2-oxo-acetic acid",Cc1cccc(C)c1N(CCOC)C(=O)C(O)=O,251.1158,C13H17NO4,"InChI=1S/C13H17NO4/c1-9-5-4-6-10(2)11(9)14(7-8-18-3)12(15)13(16)17/h4-6H,7-8H2,1-3H3,(H,16,17)",CAS_RN: 1086384-49-7,NA,MHGMSAFPNAKIRZ-UHFFFAOYSA-N,28290253,DTXSID80891458,Positive/Negative,AU204401|AU204402|AU204403|AU204404|AU204405;EA253601|EA253602|EA253603|EA253604|EA253605|EA253606|EA253607|EA253608|EA253609|EA253610|EA253611|EA253612|EA253613|EA253614,[M+H]+;[M+H]+,CID10|CID20|CID30|CID40|CID50;CID35|HCD15|HCD30|HCD45|HCD60|HCD75|HCD90|HCD15|HCD30|HCD45|HCD60|HCD75|HCD90|CID35,220.096:252.1223:221.0989|220.0958:148.1108:132.0802|132.0797:148.1112:220.0989|132.0801:131.0721:130.0648|130.0643:132.0796:131.0712;220.0968:206.1177|220.0968:252.1229:206.1176|220.0968:206.1177:178.1227|220.0968:148.1121:132.0808|132.0808:148.1121:220.0969|132.0808:105.07:148.1121|105.07:132.0808:117.0574|220.0968:252.1229:206.1176|220.0968:206.1177:178.1227|220.0968:148.1121:132.0808|132.0808:148.1121:220.0969|132.0808:105.0699:148.112|105.0699:132.0808:117.0573|220.0968:206.1177,221.0989;220.0968;206.1177;178.1227;148.1121;132.0808;131.07165;130.06455;117.05735;105.06995,Athens_Univ;Eawag,EA253651|EA253652|EA253653|EA253654|EA253655|EA253656|EA253657|EA253658|EA253659|EA253660|EA253661|EA253662|EA253663|EA253664,[M-H]-,CID35|HCD15|HCD30|HCD45|HCD60|HCD75|HCD90|HCD15|HCD30|HCD45|HCD60|HCD75|HCD90|CID35,178.124:146.098|178.1237:250.1085:146.0974|178.1238:146.0974:144.0819|178.1237:130.0662:144.0818|130.0662:144.0818:178.1238|130.0661:144.0817:120.0817|130.0661:144.0815|178.1238:250.1082:146.0974|178.1238:146.0974:144.0816|178.1236:130.0661:144.0817|130.066:144.0817:146.097|130.0659:144.0815:120.0818|130.0661:144.0815|178.1239:146.0976,250.10835;178.1238;146.0974;144.0817;130.0661;120.08175,Eawag
stpQQR941,"Metformin|3-(diaminomethylene)-1,1-dimethyl-guanidine",CN(C)C(=N)NC(N)=N,129.1014,C4H11N5,"InChI=1S/C4H11N5/c1-9(2)4(7)8-3(5)6/h1-2H3,(H5,5,6,7,8)",CAS_RN: 657-24-9,4091,XZWYZXLIPXDOLR-UHFFFAOYSA-N,3949,DTXSID2023270,Positive,AU112701|AU112702|AU112703;SM867803;EA255001|EA255002|EA255003|EA255004|EA255005|EA255006|EA255007|EA255008|EA255009|EA255010|EA255011|EA255012|EA255013|EA255014;TUE00511|TUE00512|TUE00513;UF412401|UF412402|UF412403|UF412404,[M+H]+;[M+H]+;[M+H]+;[M+H]+;[M+H]+,CID15.5-23.2|CID20|CID10;HCD35;CID35|HCD15|HCD30|HCD45|HCD60|HCD75|HCD90|HCD15|HCD30|HCD45|HCD60|HCD75|HCD90|CID35;NA10.0V|NA20.0V|NA40.0V;HCD55|HCD80|CID35|CID55,71.0606:60.0556:130.1092|130.1082:113.083|130.1079:113.0818;60.0558:130.1087:71.0604;130.1088:60.0556:85.0509|130.1089:60.0557:85.0511|130.1088:60.0557:85.0509|130.1088:60.0557:71.0604|60.0557:71.0604:130.1088|71.0604:60.0556:85.0509|71.0604:60.0556:85.0509|130.1088:60.0556:85.0508|130.1088:60.0557:85.0509|130.1088:60.0557:71.0604|60.0556:130.1088:71.0604|71.0604:60.0557:85.0509|71.0604:60.0557:85.0509|130.1088:60.0557:85.051;60.0557:130.1087:71.0605|71.0604:60.0558:46.0648|71.0605:43.0287:68.0243;130.1092:71.0606:88.0873|71.0606:88.0873:85.0512|60.0557:85.0513:113.0826|60.0557:85.0512:113.0826,113.0826;88.0873;85.0509;71.0604;68.0243;60.0557;46.0648;43.0287,Athens_Univ;CASMI_2016;Eawag;Env_Anal_Chem_U_Tuebingen;UFZ,NA,NA,NA,NA,NA,NA
stpQQR942,Cilastatin,[H][C@](N)(CSCCCC\C=C(/NC(=O)[C@@]1([H])CC1(C)C)C(O)=O)C(O)=O,358.1562,C16H26N2O5S,"InChI=1S/C16H26N2O5S/c1-16(2)8-10(16)13(19)18-12(15(22)23)6-4-3-5-7-24-9-11(17)14(20)21/h6,10-11H,3-5,7-9,17H2,1-2H3,(H,18,19)(H,20,21)(H,22,23)/b12-6-/t10-,11+/m1/s1",CAS_RN: 82009-34-5,6435415,DHSUYTOATWAVLW-WFVMDLQDSA-N,4940183,DTXSID8048238,Positive/Negative,AU212901|AU212902|AU212903|AU212904;EA255501|EA255502|EA255503|EA255504|EA255505|EA255506|EA255507|EA255508|EA255509|EA255510|EA255511|EA255512|EA255513|EA255514,[M+H]+;[M+H]+,CID10|CID20|CID30|CID40;CID35|HCD15|HCD30|HCD45|HCD60|HCD75|HCD90|HCD15|HCD30|HCD45|HCD60|HCD75|HCD90|CID35,359.1657:360.1686:202.0913|202.0904:219.1175:359.1651|130.0687:202.0893:219.1167|130.0684:200.0758:156.0842;202.0897:342.1366:315.1734|359.1636:315.1733:202.0894|97.0648:202.0895:219.1159|97.0648:69.0699:130.0684|97.0647:69.0698:79.0541|97.0647:69.0698:79.0542|97.0647:69.0699:79.0542|359.1635:315.1733:202.0893|97.0648:202.0894:219.116|97.0648:130.0684:69.0698|97.0648:69.0698:79.0542|97.0647:69.0698:79.0542|97.0647:69.0698:79.0541|202.0895:342.1364:315.1732,342.1365;315.1733;219.11635;202.0895;200.0758;156.0842;130.0684;97.06475;79.0542;69.0698,Athens_Univ;Eawag,AU212951|AU212952;EA255551|EA255552|EA255553|EA255554|EA255555|EA255556|EA255558|EA255559|EA255560|EA255561|EA255564,[M-H]-;[M-H]-,CID10|CID20;CID35|HCD15|HCD30|HCD45|HCD60|HCD75|HCD15|HCD30|HCD45|HCD60|CID35,357.1449:358.1458|226.1248:357.1434;313.1593:226.1273:270.1171|357.1493:313.1605:226.128|226.1272:357.1492:313.1589|226.1273:112.0768:192.1393|130.0695:112.0769|130.0699|357.1491:313.1594|226.1271:357.1485:313.1593|226.1272:112.0768:192.1393|130.0699|313.1589:226.1269:270.1167,357.1488;313.1593;270.1169;226.1272;192.1393;130.0699;112.0768,Athens_Univ;Eawag
stpQQR943,Gabapentin|1-(Aminomethyl)cyclohexaneacetic acid| 2-[1-(aminomethyl)cyclohexyl]acetic acid,NCC1(CC(O)=O)CCCCC1,171.1259,C9H17NO2,"InChI=1S/C9H17NO2/c10-7-9(6-8(11)12)4-2-1-3-5-9/h1-7,10H2,(H,11,12)",CAS_RN: 60142-96-3,3446,UGJMXCAKCUNAIE-UHFFFAOYSA-N,3328,DTXSID0020074,Positive/Negative,AU167801|AU167802|AU167803;EA256101|EA256102|EA256103|EA256104|EA256105|EA256106|EA256107|EA256108|EA256109|EA256110|EA256111|EA256112|EA256113|EA256114;TUE00341|TUE00342|TUE00343;UF411401|UF411402|UF411403|UF411404,[M+H]+;[M+H]+;[M+H]+;[M+H]+,CID10|CID20|CID30;CID35|HCD15|HCD30|HCD45|HCD60|HCD75|HCD90|HCD15|HCD30|HCD45|HCD60|HCD75|HCD90|CID35;NA10.0V|NA20.0V|NA40.0V;HCD55|HCD80|CID35|CID55,172.1327:154.1219:137.0955|154.1216:137.0956:172.1323|137.0955:154.1215:136.1104;154.1227:155.1066:172.1335|172.1334:154.1226:155.1066|172.1333:154.1227:137.0961|154.1228:172.1333:137.0961|154.1226:137.0961:119.0855|95.0855:154.1228:119.0855|95.0856:67.0543:91.0542|172.1334:154.1227:155.1067|172.1334:154.1228:137.0962|154.1228:172.1333:137.0962|154.1227:137.0961:119.0856|95.0856:154.1226:119.0855|95.0856:67.0543:91.0543|154.1228:155.1066:137.0961;154.1227:172.1332:137.096|55.0177:137.096:154.1226|67.0543:55.0177:55.0541;154.1228:137.0962:119.0856|95.0856:119.0856:91.0543|154.1227:155.1068:137.0963|154.1228:155.1068:137.0964,155.10665;154.1227;137.0961;136.1104;119.08555;95.0856;91.0543;67.0543;55.0541;55.0177,Athens_Univ;Eawag;Env_Anal_Chem_U_Tuebingen;UFZ,TUE00345|TUE00346|TUE00347,[M-H]-,NA10.0V|NA20.0V|NA40.0V,170.1189:152.1081|170.1187:152.1077|41.9977,170.1188;152.1079;41.9977,Env_Anal_Chem_U_Tuebingen
stpQQR944,Levetiracetam|(2R)-2-(2-ketopyrrolidino)butyramide,CC[C@H](C(=O)N)N1CCCC1=O,170.1055,C8H14N2O2,"InChI=1S/C8H14N2O2/c1-2-6(8(9)12)10-5-3-4-7(10)11/h6H,2-5H2,1H3,(H2,9,12)/t6-/m1/s1",CAS_RN: 102767-28-2,441341,HPHUVLMMVZITSG-ZCFIWIBFSA-N,390096,DTXSID10146044,Positive,AU160501|AU160502|AU160503|AU160504|AU160505;EA256401|EA256402|EA256403|EA256404|EA256405|EA256406|EA256407|EA256408|EA256409|EA256410|EA256411|EA256412|EA256413|EA256414,[M+H]+;[M+H]+,CID10|CID20|CID30|CID40|CID50;CID35|HCD15|HCD30|HCD45|HCD60|HCD75|HCD90|HCD15|HCD30|HCD45|HCD60|HCD75|HCD90|CID35,126.0917:154.0867:127.0946|126.0919:127.095:154.0861|126.0922:127.0952|126.0915:127.095|126.0918;154.0863:126.0914|126.0914:154.0863:171.1128|126.0914:154.0863:171.1134|126.0914:154.0858:69.0335|126.0914:69.0336:98.0965|126.0913:69.0335:98.0964|126.0913:69.0335:98.0964|126.0913:154.0862:171.1126|126.0913:154.0862:171.1126|126.0913:154.0856:98.0964|126.0914:98.0964:69.0335|126.0913:69.0335:98.0964|126.0913:69.0335:98.0964|154.0862:126.0913,154.0862;127.095;126.0914;98.0964;69.0335,Athens_Univ;Eawag,NA,NA,NA,NA,NA,NA
stpQQR945,"5-Fluorouracil|5-fluoranyl-1H-pyrimidine-2,4-dione",FC1=CNC(=O)NC1=O,130.0179,C4H3FN2O2,"InChI=1S/C4H3FN2O2/c5-2-1-6-4(9)7-3(2)8/h1H,(H2,6,7,8,9)",CAS_RN: 51-21-8,3385,GHASVSINZRGABV-UHFFFAOYSA-N,3268,DTXSID2020634,Positive/Negative,EA256601|EA256602|EA256603|EA256604|EA256605|EA256606|EA256607|EA256608|EA256609|EA256610|EA256611|EA256612|EA256613|EA256614,[M+H]+,CID35|HCD15|HCD30|HCD45|HCD60|HCD75|HCD90|HCD15|HCD30|HCD45|HCD60|HCD75|HCD90|CID35,84.9597:113.9985:88.0192|131.025|131.025:84.9597:113.9985|131.025:113.9985:84.9597|113.9984:131.025:84.9597|113.9985:131.025:84.9597|113.9985:84.9597:58.0087|131.025:84.9596|131.025:84.9596:113.9984|131.025:84.9596:113.9985|113.9985:131.025:84.9596|113.9985:84.9596:131.025|113.9984:84.9596:58.0087|84.9596:113.9985:113.0231,113.9985;113.0231;88.0192;84.9596;58.0087,Eawag,EA256652|EA256653|EA256654|EA256655|EA256656|EA256657|EA256658|EA256659|EA256660|EA256661|EA256662|EA256663,[M-H]-,HCD15|HCD30|HCD45|HCD60|HCD75|HCD90|HCD15|HCD30|HCD45|HCD60|HCD75|HCD90,129.0109|129.0108|129.0107|129.0106|129.0103|129.0106:58.994|129.0105|129.0106|129.0106|129.0105|129.0103:58.9941|58.9939,129.0106;58.994,Eawag
stpQQR946,"Tramadol|(1R,2R)-2-(dimethylaminomethyl)-1-(3-methoxyphenyl)-1-cyclohexanol",COC1=CC=CC(=C1)[C@@]2(O)CCCC[C@@H]2CN(C)C,263.1885,C16H25NO2,"InChI=1S/C16H25NO2/c1-17(2)12-14-7-4-5-10-16(14,18)13-8-6-9-15(11-13)19-3/h6,8-9,11,14,18H,4-5,7,10,12H2,1-3H3/t14-,16+/m1/s1",CAS_RN: 27203-92-5,33741,TVYLLZQTGLZFBW-ZBFHGGJFSA-N,31105,DTXSID90858931,Positive,AU111701|AU111702|AU111703|AU111704|AU111705;EA256701|EA256702|EA256703|EA256704|EA256705|EA256706|EA256707|EA256708|EA256709|EA256710|EA256711|EA256712|EA256713|EA256714;UF410303|UF410304,[M+H]+;[M+H]+;[M+H]+,CID10|CID20|CID30|CID40|CID50;CID35|HCD15|HCD30|HCD45|HCD60|HCD75|HCD90|HCD15|HCD30|HCD45|HCD60|HCD75|HCD90|CID35;CID35|CID55,264.1957:246.1839|264.1954:246.1839:201.1268|159.0794:121.0635:173.0939|121.0644:159.0795:144.0561|121.0648:144.0569:128.0611;246.1851|264.1959:58.0651:246.1851|58.0652:264.196:246.1851|58.0651:56.0494|58.0651:121.0646|58.0651:121.0646|58.0652:121.0651|264.1961:58.0652:246.185|58.0651:264.1962:246.185|58.0651:264.1956:246.186|58.0651:56.0495:121.0648|58.0651:121.0648|58.0651:121.0647:56.0494|246.185;246.1855:187.1115|246.1855:187.1119,246.1851;201.1268;187.1117;173.0939;159.07945;144.0565;128.0611;121.0647;58.0651;56.0494,Athens_Univ;Eawag;UFZ,NA,NA,NA,NA,NA,NA
stpQQR947,"Lidocaine|2-(diethylamino)-N-(2,6-dimethylphenyl)acetamide",CCN(CC)CC(=O)NC1=C(C)C=CC=C1C,234.1732,C14H22N2O,"InChI=1S/C14H22N2O/c1-5-16(6-2)10-13(17)15-14-11(3)8-7-9-12(14)4/h7-9H,5-6,10H2,1-4H3,(H,15,17)",CAS_RN: 137-58-6,3676,NNJVILVZKWQKPM-UHFFFAOYSA-N,3548,DTXSID1045166,Positive,AU121202|AU121203|AU121204;EA257201|EA257202|EA257203|EA257204|EA257205|EA257206|EA257207|EA257208|EA257209|EA257210|EA257211|EA257212|EA257213|EA257214;ET080001|ET080002|ET080003|ET080004|ET080005;TUE00461|TUE00462|TUE00463;UF410201|UF410202|UF410203|UF410204,[M+H]+;[M+H]+;[M+H]+;[M+H]+;[M+H]+,"CID20|CID30|CID40;CID35|HCD15|HCD30|HCD45|HCD60|HCD75|HCD90|HCD15|HCD30|HCD45|HCD60|HCD75|HCD90|CID35;HCD15, 30, 45, 60, 70 or 90|HCD15, 30, 45, 60, 70 or 90|HCD15, 30, 45, 60, 70 or 90|HCD15, 30, 45, 60, 70 or 90|HCD15, 30, 45, 60, 70 or 90;NA10.0V|NA20.0V|NA40.0V;HCD55|HCD80|CID35|CID55",235.18:173.0792:217.1067|134.0957:235.1804:155.0676|134.096:173.1067:122.0959;86.0964:58.0649|235.1805:86.0962|235.1805:86.0964:58.065|86.0965:235.1814:58.0651|86.0965:58.0651|86.0964:58.0651|86.0964:58.0651|235.1805:86.0964|235.1806:86.0964:58.065|86.0965:235.1797:58.0651|86.0964:58.0651|86.0964:58.0651|86.0964:58.0651|86.0964:58.065;86.0965:58.0656|86.0965:58.0656|86.0965:58.0656:134.0968|235.1807:86.0965|86.0965:235.1807;86.0966:235.181:58.0653|86.0966:58.0652|86.0966:58.0652;86.0964:133.0077:235.1807|86.0964:133.0077:134.0965|86.0964:235.1808:133.0078|86.0964:133.0076:179.0131,217.1067;179.0131;173.1067;173.0792;155.0676;134.09625;133.0077;122.0959;86.0964;58.0651,Athens_Univ;Eawag;Eawag_Additional_Specs;Env_Anal_Chem_U_Tuebingen;UFZ,NA,NA,NA,NA,NA,NA
stpQQR948,"Cyclophosphamide|N,N-bis(2-chloroethyl)-2-oxidanylidene-1,3,2$l^{5}-oxazaphosphinan-2-amine",ClCCN(CCCl)P1(=O)NCCCO1,260.0248,C7H15Cl2N2O2P,"InChI=1S/C7H15Cl2N2O2P/c8-2-5-11(6-3-9)14(12)10-4-1-7-13-14/h1-7H2,(H,10,12)",CAS_RN: 50-18-0,2907,CMSMOCZEIVJLDB-UHFFFAOYSA-N,2804,DTXSID5020364,Positive,EA257901|EA257902|EA257903|EA257904|EA257905|EA257906|EA257907|EA257908|EA257909|EA257910|EA257911|EA257912|EA257913|EA257914;UF411901|UF411902|UF411903|UF411904,[M+H]+;[M+H]+,CID35|HCD15|HCD30|HCD45|HCD60|HCD75|HCD90|HCD15|HCD30|HCD45|HCD60|HCD75|HCD90|CID35;HCD55|HCD80|CID35|CID55,233.001:140.003:106.0419|261.0319:140.0029|261.0319:233.0008:140.0029|140.003:261.0321:106.0419|140.0029:142.0185:106.0418|140.0029:142.0184:120.0209|140.0027:62.9996:56.0494|261.0322:106.0418:233.0017|261.0321:140.003:233.001|140.0028:261.0322:106.0419|140.0028:142.0185:106.0419|140.0029:142.0185:120.0209|140.0028:62.9996:56.0494|233.0009:140.0029:106.0419;140.0035:142.0191:106.0423|140.0035:142.0192:106.0423|140.0036:106.0423:142.0191|140.0036:106.0423:142.0192,233.001;142.0188;140.0029;120.0209;106.0419;62.9996;56.0494,Eawag;UFZ,NA,NA,NA,NA,NA,NA
stpQQR949,"Ritonavir| 1,3-thiazol-5-ylmethyl N-[(2S,5S)-3-hydroxy-5-[[3-methyl-2-[[methyl-[(2-propan-2-yl-1,3-thiazol-4-yl)methyl]carbamoyl]amino]butanoyl]amino]-1,6-diphenylhexan-2-yl]carbamate",CC(C)C(NC(=O)N(C)CC1=CSC(=N1)C(C)C)C(=O)N[C@H](CC(O)[C@H](CC2=CC=CC=C2)NC(=O)OCC3=CN=CS3)CC4=CC=CC=C4,720.3128,C37H48N6O5S2,"InChI=1S/C37H48N6O5S2/c1-24(2)33(42-36(46)43(5)20-29-22-49-35(40-29)25(3)4)34(45)39-28(16-26-12-8-6-9-13-26)18-32(44)31(17-27-14-10-7-11-15-27)41-37(47)48-21-30-19-38-23-50-30/h6-15,19,22-25,28,31-33,44H,16-18,20-21H2,1-5H3,(H,39,45)(H,41,47)(H,42,46)/t28-,31-,32?,33?/m0/s1",CAS_RN: 155213-67-5,60954,NCDNCNXCDXHOMX-FDEOAKKQSA-N,54917,NA,Positive,EA258001|EA258002|EA258003|EA258004|EA258005|EA258006|EA258007|EA258008|EA258009|EA258010|EA258011|EA258012|EA258013|EA258014,[M+H]+,CID35|HCD15|HCD30|HCD45|HCD60|HCD75|HCD90|HCD15|HCD30|HCD45|HCD60|HCD75|HCD90|CID35,426.1841:296.1426:268.1476|296.1423:268.1473:171.0948|268.1476:171.0949:197.0742|140.0527:197.074:171.0949|140.0528:98.0059:197.074|140.0528:98.0059:70.995|140.0527:70.995:98.0058|296.1426:268.1476:171.095|268.1476:171.0949:197.0742|140.0528:197.0742:171.0949|140.0528:98.0058:197.0741|140.0528:98.0058:70.995|140.0527:70.995:98.0058|426.1839:296.1423:268.1474,426.184;296.14245;268.1476;197.07415;171.0949;140.0528;98.0058;70.995,Eawag,NA,NA,NA,NA,NA,NA
stpQQR950,Valsartan| (2S)-3-methyl-2-[1-oxopentyl-[[4-[2-(2H-tetrazol-5-yl)phenyl]phenyl]methyl]amino]butanoic acid,CCCCC(=O)N(CC1=CC=C(C=C1)C2=C(C=CC=C2)C3=NN=NN3)[C@@H](C(C)C)C(O)=O,435.227,C24H29N5O3,"InChI=1S/C24H29N5O3/c1-4-5-10-21(30)29(22(16(2)3)24(31)32)15-17-11-13-18(14-12-17)19-8-6-7-9-20(19)23-25-27-28-26-23/h6-9,11-14,16,22H,4-5,10,15H2,1-3H3,(H,31,32)(H,25,26,27,28)/t22-/m0/s1",CAS_RN: 137862-53-4,60846,ACWBQPMHZXGDFX-QFIPXVFZSA-N,54833,NA,Positive/Negative,AU111201|AU111202|AU111203|AU111204|AU111205|AU111206;SM860801;EA258301|EA258302|EA258303|EA258304|EA258305|EA258306|EA258307|EA258308|EA258309|EA258310|EA258311|EA258312|EA258313|EA258314,[M+H]+;[M+H]+;[M+H]+,CID10|CID24.3-36.5|CID30|CID40|CID50|CID20;HCD35;CID35|HCD15|HCD30|HCD45|HCD60|HCD75|HCD90|HCD15|HCD30|HCD45|HCD60|HCD75|HCD90|CID35,436.2346:418.2243:408.228|207.0926:235.0985:291.1507|207.0909:235.0967:291.1485|207.0907:180.0796:190.0641|207.0909:180.0798:178.0766|235.0966:291.1492:306.1703;207.0917:235.0977:291.1492;418.2236:408.2286:306.1715|235.0977:291.1493:306.1715|207.0917:235.0977:291.1492|207.0917:180.0808:190.0651|207.0917:180.0808:190.0651|180.0808:190.0652:178.0778|190.0652:152.062:205.0761|235.0978:291.1492:306.1714|207.0917:235.0977:291.1493|207.0917:180.0808:190.0652|207.0917:180.0808:190.0652|180.0807:190.0651:178.0777|205.076:190.0651:152.062|418.2234:408.2283:362.2227,418.2236;408.2283;362.2227;306.17145;291.1492;235.0977;207.0917;205.07605;190.0651;180.0808;178.0777;152.062,Athens_Univ;CASMI_2016;Eawag,AU111251|AU111252|AU111253|AU111254;SM860851;EA258351|EA258352|EA258353|EA258354|EA258355|EA258356|EA258358|EA258359|EA258360|EA258361|EA258362|EA258364,[M-H]-;[M-H]-;[M-H]-,CID10|CID20|CID30|CID40;HCD35;CID35|HCD15|HCD30|HCD45|HCD60|HCD75|HCD15|HCD30|HCD45|HCD60|HCD75|CID35,434.2139:435.2165|434.2135:179.0832:350.1598|179.0841|179.0844;434.2197:179.0866:116.0709;350.1619:391.2023:179.0866|434.2203:350.1636:391.2008|179.0866:350.1623:304.1565|179.0866:116.0718:192.082|179.0868:178.0793:116.0721|179.0865|434.2197:350.1621:179.0873|179.0866:350.162:304.1564|179.0867:192.0816:116.0716|179.0868:178.0788:116.0716|179.0866:178.0792:350.1636|350.1618:391.2022:179.0865,434.2197;391.2022;350.16205;304.15645;192.0818;179.0866;178.0792;116.0716,Athens_Univ;CASMI_2016;Eawag
stpQQR951,Furosemide|Frusemide| 4-chloranyl-2-(furan-2-ylmethylamino)-5-sulfamoyl-benzoic acid,NS(=O)(=O)c2cc(c(NCc1ccco1)cc2Cl)C(=O)O,330.0077,C12H11ClN2O5S,"InChI=1S/C12H11ClN2O5S/c13-9-5-10(15-6-7-2-1-3-20-7)8(12(16)17)4-11(9)21(14,18)19/h1-5,15H,6H2,(H,16,17)(H2,14,18,19)",CAS_RN: 54-31-9,3440,ZZUFCTLCJUWOSV-UHFFFAOYSA-N,3322,DTXSID6020648,Positive/Negative,SM850104;EA260001|EA260002|EA260003|EA260004|EA260005|EA260006|EA260007|EA260008|EA260009|EA260010|EA260011|EA260012|EA260013|EA260014;UF407803|UF407804,[M+H]+;[M+H]+;[M+H]+,HCD35;CID35|HCD15|HCD30|HCD45|HCD60|HCD75|HCD90|HCD15|HCD30|HCD45|HCD60|HCD75|HCD90|CID35;CID35|CID55,81.0335:53.0388:205.0101;252.9968:254.9935:176.9887|81.0335:98.984:176.9892|81.0335:98.9841|98.9841:81.0335|98.9841:81.0334|98.9841:81.0334|98.984:81.0333:195.9484|81.0334:98.9841:252.9966|98.9841:81.0334:262.9888|98.9841:81.0334|98.9841:81.0334|98.9841:81.0334|98.9841:81.0335|252.9969:254.9939:176.9891;272.9385:244.944|272.9388:244.9434,272.93865;262.9888;254.9937;252.9968;244.9437;205.0101;195.9484;176.9891;98.9841;81.0334;53.0388,CASMI_2016;Eawag;UFZ,SM850151;EA260051|EA260052|EA260053|EA260054|EA260055|EA260056|EA260057|EA260058|EA260059|EA260060|EA260061|EA260062|EA260063|EA260064;UF407851|UF407852|UF407853|UF407854,[M-H]-;[M-H]-;[M-H]-,HCD35;CID35|HCD15|HCD30|HCD45|HCD60|HCD75|HCD90|HCD15|HCD30|HCD45|HCD60|HCD75|HCD90|CID35;HCD55|HCD80|CID35|CID55,204.9843:285.0106:329.0004;285.0109:204.9846:249.0339|329.0007:285.0111|285.0109:204.9846:329.0007|204.9846:77.9656:285.0108|77.9656:204.9846:126.0118|77.9656:126.0117:121.041|77.9655:94.0297:121.0404|329.0007:285.0105|285.0106:204.9845:329.0003|204.9845:77.9656:285.0103|77.9655:204.9845:126.0116|77.9656:126.0117:121.0407|77.9656:121.0405:126.0117|285.0107:204.9842:249.0336;285.0106|285.0111:204.9844|285.0106:204.9842|285.0105:204.9844,329.0007;285.0106;249.03375;204.9845;126.0117;121.0406;94.0297;77.9656,CASMI_2016;Eawag;UFZ