NORMAN_ID,NAME,SMILES,NEUTRAL_EXACT_MASS,FORMULA,StdInChI,CAS_RN,PUBCHEM_CID,InChIKey,CHEMSPIDER_ID,DTXSID,Preferable Ionization,MB_Records Positive Ionization,Adduct Positive Ionization,Ionisation type and collision energy Positive Ionization,Fragments Positive Ionization,Simplified_fragments_Positive,Institute Positive Ionization,MB_Records Negative Ionization,Adduct Negative Ionization,Ionisation type and collision energy Negative Ionization,Fragments Negative Ionization,Simplified_fragments_Negative,Institute Negative Ionization
stpQQR113,"2-Mercaptobenzothiazole|3H-1,3-benzothiazole-2-thione",SC1=NC2=CC=CC=C2S1,166.98634,C7H5NS2,"InChI=1S/C7H5NS2/c9-7-8-5-3-1-2-4-6(5)10-7/h1-4H,(H,8,9)",CAS_RN: 149-30-4,697993,YXIWHUQXZSMYRE-UHFFFAOYSA-N,608157,DTXSID1020807,Positive/Negative,SM878502;EQ319001|EQ319002|EQ319003|EQ319004|EQ319005|EQ319006|EQ319007|EQ319008|EQ319009,[M+H]+;[M+H]+,HCD35;HCD15|HCD30|HCD45|HCD60|HCD75|HCD90|HCD120|HCD150|HCD180,167.9936:135.0137:124.0215;167.9935:136.0217:92.0495|167.9935:135.0136:92.0494|167.9935:135.0137:124.0216|167.9936:135.0137:124.0216|167.9936:135.0137:124.0216|135.0137:109.0107:124.0216|65.0386:135.0137:109.0107|65.0386:108.0028:68.9793|68.9794:65.0386:108.0028,136.0217;135.0137;124.0216;109.0107;108.0028;92.04945;68.97935;65.0386,CASMI_2016;Eawag,SM878551;EQ319051|EQ319052|EQ319053|EQ319054|EQ319055|EQ319056|EQ319057|EQ319058|EQ319059,[M-H]-;[M-H]-,HCD35;HCD15|HCD30|HCD45|HCD60|HCD75|HCD90|HCD120|HCD150|HCD180,165.9791:134.0069:164.9712;165.9791:134.007:57.9754|165.979:134.007:57.9755|165.9791:134.0071:57.9756|165.9791:134.007:57.9757|134.007:57.9757:165.9791|57.9757:134.0071:165.9791|57.9757:134.0071:63.9447|57.9757:134.0071:63.9447|57.9757:63.9447:134.0071,165.9791;164.9712;134.00705;63.9447;57.9757,CASMI_2016;Eawag
stpQQR114,"Octhilinone|2-Octyl-4-isothiazolin-3-one|2-octyl-1,2-thiazol-3-one",CCCCCCCCN1SC=CC1=O,213.11874,C11H19NOS,"InChI=1S/C11H19NOS/c1-2-3-4-5-6-7-9-12-11(13)8-10-14-12/h8,10H,2-7,9H2,1H3",CAS_RN: 25339-53-1,33528,JPMIIZHYYWMHDT-UHFFFAOYSA-N,30932,DTXSID1025805,Positive,SM821001;EA030001|EA030002|EA030003|EA030004|EA030005|EA030006|EA030007|EA030008|EA030009|EA030010|EA030011|EA030012|EA030013|EA030014,[M+H]+;[M+H]+,HCD35;CID35|HCD15|HCD30|HCD45|HCD60|HCD75|HCD90|HCD15|HCD30|HCD45|HCD60|HCD75|HCD90|CID35,102.0009:214.1261:71.0856;102.0008:71.0855|214.126:102.0009:71.0853|214.1261:102.0008:71.0855|102.0007:71.0855:57.0698|102.0008:57.0698:71.0855|102.0008:57.0698:71.0854|102.0008:57.0698:83.9904|214.1261:102.0008:71.0854|214.1261:102.0008:71.0855|102.0008:214.1259:71.0855|102.0008:57.0698:71.0855|102.0008:57.0698:71.0855|102.0008:57.0698:83.9903|102.0008:71.0855,102.0008;83.99035;71.0855;57.0698,CASMI_2016;Eawag,NA,NA,NA,NA,NA,NA
stpQQR115,3-Iodopropynyl butylcarbamate|3-iodoprop-1-ynyl N-butylcarbamate,CCCCNC(=O)OC#CCI,280.99128,C8H12INO2,"InChI=1S/C8H12INO2/c1-2-3-6-10-8(11)12-7-4-5-9/h2-3,5-6H2,1H3,(H,10,11)",CAS_RN: 55406-53-6,9921791,DNKGZSOYWMQDTK-UHFFFAOYSA-N,8097426,DTXSID50432872,Positive,SM821102,[M+H]+,HCD35,164.9198:57.0701:55.0181,164.9198;57.0701;55.0181,CASMI_2016,NA,NA,NA,NA,NA,NA
stpQQR116,"4-Amino-N,N-dimethylbenzenesulfonamide",CN(C)S(=O)(=O)C1=CC=C(N)C=C1,200.06195,C8H12N2O2S,"InChI=1S/C8H12N2O2S/c1-10(2)13(11,12)8-5-3-7(9)4-6-8/h3-6H,9H2,1-2H3",CAS_RN: 1709-59-7,74369,BABGMPQXLCJMSK-UHFFFAOYSA-N,66962,DTXSID5061902,Positive,SM878401;UF417001|UF417002|UF417003|UF417004,[M+H]+;[M+H]+,HCD35;HCD55|HCD80|CID35|CID55,156.0113:108.0444:92.0495;92.0497:108.0447:156.0119|92.0497:108.0446:110.0603|156.0118:108.0447:92.0497|156.0118:108.0447:92.0497,156.0118;110.0603;108.0447;92.0497,CASMI_2016;UFZ,NA,NA,NA,NA,NA,NA
stpQQR117,4-Hydroxybenzotriazole,OC1=C2N=NNC2=CC=C1,135.04326,C6H5N3O,"InChI=1S/C6H5N3O/c10-5-3-1-2-4-6(5)8-9-7-4/h1-3,10H,(H,7,8,9)",CAS_RN: 2592-95-2,2759291,JMTMSDXUXJISAY-UHFFFAOYSA-N,10607767,DTXSID90374722,Positive/Negative,EQ290001|EQ290002|EQ290003|EQ290004|EQ290005|EQ290006|EQ290007|EQ290008|EQ290009;ETS00119;UF420101|UF420102|UF420103|UF420104,[M+H]+;[M+H]+;[M+H]+,HCD15|HCD30|HCD45|HCD60|HCD75|HCD90|HCD120|HCD150|HCD180;HCDscaled 80 (m/z=200) to 110 (m/z=120);HCD55|HCD80|CID35|CID55,136.0505:80.0494:108.0444|136.0505:80.0494:108.0443|136.0505:80.0494:108.0444|136.0506:80.0494:53.0386|80.0494:136.0506:53.0386|80.0494:136.0506:53.0386|53.0386:80.0494:63.0229|53.0386:63.0229:80.0495|63.0229:53.0386:62.0151;80.0487:136.0501:63.0221;136.0509:80.0497:108.0448|136.051:80.0497:81.0337|80.0497:136.0511:108.0445|80.0497:108.0445,108.04445;81.0337;80.0494;63.0229;62.0151;53.0386,Eawag;Eawag_Additional_Specs2;UFZ,EQ290051|EQ290052|EQ290053|EQ290054|EQ290055|EQ290056|EQ290057|EQ290058|EQ290059;UF420151|UF420152|UF420153|UF420154,[M-H]-;[M-H]-,HCD15|HCD30|HCD45|HCD60|HCD75|HCD90|HCD120|HCD150|HCD180;HCD55|HCD80|CID35|CID55,134.0361:106.0299:78.035|134.0361:106.0299:78.035|78.035:134.0361:106.0299|78.035:106.0299:105.0221|78.035:105.022:106.0299|78.035:105.022:106.0299|105.022:78.0349:50.0036|50.0036:105.022:65.9986|50.0036:65.9986:105.0219;134.036|134.0358|106.03|106.0299,134.0361;106.0299;105.022;78.035;65.9986;50.0036,Eawag;UFZ
stpQQR118,4-Methoxycinnamic acid|(E)-3-(4-methoxyphenyl)prop-2-enoic acid,COC1=CC=C(\C=C\C(O)=O)C=C1,178.06299,C10H10O3,"InChI=1S/C10H10O3/c1-13-9-5-2-8(3-6-9)4-7-10(11)12/h2-7H,1H3,(H,11,12)/b7-4+",CAS_RN: 830-09-1,699414,AFDXODALSZRGIH-QPJJXVBHSA-N,609479,DTXSID1046059,Positive,SM821404,[M+H]+,HCD35,161.0597:133.0648:118.0413,161.0597;133.0648;118.0413,CASMI_2016,NA,NA,NA,NA,NA,NA
stpQQR119,4-Methylcoumarin|4-methylchromen-2-one,CC1=CC(=O)OC2=CC=CC=C12,160.05243,C10H8O2,"InChI=1S/C10H8O2/c1-7-6-10(11)12-9-5-3-2-4-8(7)9/h2-6H,1H3",CAS_RN: 607-71-6,11833,PSGQCCSGKGJLRL-UHFFFAOYSA-N,11340,DTXSID00209516,Positive,SM821501,[M+H]+,HCD35,161.0598:133.0649:118.0414,133.0649;118.0414,CASMI_2016,NA,NA,NA,NA,NA,NA
stpQQR120,5-Methyl-1H-benzotriazole|5-Methylbenzotriazole,CC1=CC=C2NN=NC2=C1,133.064,C7H7N3,"InChI=1S/C7H7N3/c1-5-2-3-6-7(4-5)9-10-8-6/h2-4H,1H3,(H,8,9,10)",CAS_RN: 136-85-6,8705,LRUDIIUSNGCQKF-UHFFFAOYSA-N,8381,DTXSID1038743,Positive/Negative,AU405101|AU405102;SM821601;SM880101;EA016701|EA016702|EA016703|EA016704|EA016705|EA016706|EA016707|EA016708|EA016709|EA016710|EA016711|EA016712|EA016713|EA016714;TUE00031|TUE00032|TUE00033,[M+H]+;[M+H]+;[M+H]+;[M+H]+;[M+H]+,CID10|CID20;HCD35;HCD35;CID35|HCD15|HCD30|HCD45|HCD60|HCD75|HCD90|HCD15|HCD30|HCD45|HCD60|HCD75|HCD90|CID35;NA10.0V|NA20.0V|NA40.0V,134.0715:135.0746|134.0713:135.0742;134.0713:79.0543:106.0651;134.0712:79.0542:106.0651;134.0713:106.0651:79.0542|134.0714|134.0713:77.0386:79.0543|134.0715:106.0653:79.0543|134.0713:79.0543:106.0652|134.0714:79.0543:77.0386|134.0713:77.0386:79.0542|134.0713:79.0544|134.0714:106.0651:79.0544|134.0714:106.0651:79.0542|134.0713:79.0543:106.0652|134.0713:79.0543:77.0386|134.0713:77.0386:79.0543|134.0713:106.0652:79.0542;134.0713:79.0543:77.0386|77.0387:79.0543:134.0712|77.0387:51.0227:53.0385,106.0651;79.0543;77.0386;53.0385;51.0227,Athens_Univ;CASMI_2016;CASMI_2016;Eawag;Env_Anal_Chem_U_Tuebingen,EA016751|EA016752|EA016753|EA016754|EA016755|EA016756|EA016757|EA016758|EA016759|EA016760|EA016761|EA016762|EA016763|EA016764;TUE00035|TUE00036|TUE00037,[M-H]-;[M-H]-,CID35|HCD15|HCD30|HCD45|HCD60|HCD75|HCD90|HCD15|HCD30|HCD45|HCD60|HCD75|HCD90|CID35;NA10.0V|NA20.0V|NA40.0V,132.0568:103.0425:104.0508|132.0569|132.0568|132.0569:104.0505:103.0428|132.0568:104.0506:103.0426|132.0568:103.0428:104.0506|132.0568:103.0426:104.0507|132.0569|132.0569|132.0569:104.0503|132.0568:103.0426:104.0502|132.0568:103.0425:104.0503|132.0569:104.0506:103.0429|132.0567:104.0502:103.0423;132.0567:103.0426:104.0504|132.0564:103.0426:64.0192|64.019:88.0192:50.003,132.0568;104.0505;103.0426;88.0192;64.0191;50.003,Eawag;Env_Anal_Chem_U_Tuebingen
stpQQR121,"6-Ethoxy-2-mercaptobenzothiazole|6-ethoxy-3H-1,3-benzothiazole-2-thione",CCOC1=CC=C2N=C(S)SC2=C1,211.01256,C9H9NOS2,"InChI=1S/C9H9NOS2/c1-2-11-6-3-4-7-8(5-6)13-9(12)10-7/h3-5H,2H2,1H3,(H,10,12)",CAS_RN: 120-53-6,719344,HOASVNMVYBSLSU-UHFFFAOYSA-N,627838,DTXSID2059512,Positive/Negative,SM821703,[M+H]+,HCD35,212.0199:183.9887:151.0087,183.9887;151.0087,CASMI_2016,SM821753,[M-H]-,HCD35,180.9661:210.0052:152.9712,210.0052;180.9661;152.9712,CASMI_2016
stpQQR122,Acid Orange 7 (free acid),OC1=CC=C2C=CC=CC2=C1N=NC1=CC=C(C=C1)S(O)(=O)=O,328.05178,C16H12N2O4S,"InChI=1S/C16H12N2O4S/c19-15-10-5-11-3-1-2-4-14(11)16(15)18-17-12-6-8-13(9-7-12)23(20,21)22/h1-10,19H,(H,20,21,22)",CAS_RN: NA,100958454,RDUJRVXKAIVTDH-UHFFFAOYSA-N,21535662,DTXSID7047986,Positive/Negative,SM821801,[M+H]+,HCD35,329.0593:156.0444:128.0495,156.0444;128.0495,CASMI_2016,SM821851,[M-H]-,HCD35,327.0444:170.9995:155.9886,327.0444;170.9995;155.9886,CASMI_2016
stpQQR123,Benzophenone-4|Sulisobenzone|5-benzoyl-4-hydroxy-2-methoxybenzenesulfonic acid,COC1=CC(O)=C(C=C1S(O)(=O)=O)C(=O)C1=CC=CC=C1,308.03546,C14H12O6S,"InChI=1S/C14H12O6S/c1-20-12-8-11(15)10(7-13(12)21(17,18)19)14(16)9-5-3-2-4-6-9/h2-8,15H,1H3,(H,17,18,19)",CAS_RN: 6628-37-1,19988,CXVGEDCSTKKODG-UHFFFAOYSA-N,18829,DTXSID2042436,Positive/Negative,SM880203,[M+H]+,HCD35,230.9959:309.0429:135.0077,230.9959;135.0077,CASMI_2016,SM880251;TUE00145|TUE00146|TUE00147;UF418351|UF418352|UF418353|UF418354,[M-H]-;[M-H]-;[M-H]-,HCD35;NA10.0V|NA20.0V|NA40.0V;HCD55|HCD80|CID35|CID55,307.0282:227.0714:211.0402;307.0279:227.071:266.9865|307.0278:227.0711:210.0321|79.9573:211.0398:182.0376;307.028|307.028|227.0713:210.0322:228.0429|227.0713:210.0323:228.043,307.028;266.9865;228.04295;227.0713;211.04;210.0322;182.0376;79.9573,CASMI_2016;Env_Anal_Chem_U_Tuebingen;UFZ
stpQQR124,"DEET|N,N-diethyl-3-methylbenzamide",CCN(CC)C(=O)C1=CC(C)=CC=C1,191.13101,C12H17NO,"InChI=1S/C12H17NO/c1-4-13(5-2)12(14)11-8-6-7-10(3)9-11/h6-9H,4-5H2,1-3H3",CAS_RN: 134-62-3,4284,MMOXZBCLCQITDF-UHFFFAOYSA-N,4133,DTXSID2021995,Positive,AU335301|AU335302|AU335303|AU335304;SM879706;EA021301|EA021302|EA021303|EA021304|EA021305|EA021306|EA021307|EA021308|EA021309|EA021310|EA021311|EA021312|EA021313|EA021314;TUE00311|TUE00312|TUE00313;UF417601|UF417602|UF417603|UF417604|UF417633|UF417634|UF417635|UF417636,[M+H]+;[M+H]+;[M+H]+;[M+H]+;[M+H]+,CID10|CID20|CID40|CID40;HCD35;CID35|HCD15|HCD30|HCD45|HCD60|HCD75|HCD90|HCD15|HCD30|HCD45|HCD60|HCD75|HCD90|CID35;NA10.0V|NA20.0V|NA40.0V;HCD55|HCD80|CID35|CID55|HCD55|HCD80|CID35|CID55,192.1379:193.1411:119.0484|119.0486:192.1379:193.1411|119.0485:120.0515:192.1374|119.0485:118.0645:120.0513;119.0491:192.1383:100.0757;119.0494:192.1387:100.0758|192.1385:119.0486|192.1386:119.0492:72.0444|119.0492:192.1385:100.0757|119.0493:192.1377:91.0543|119.0492:91.0543:119.0605|91.0543:119.0493:119.0605|192.1385:119.0491:176.1072|192.1384:119.0492:100.0757|119.0493:192.1385:72.0444|119.0492:192.1384:91.0543|119.0492:91.0543:119.0604|91.0543:119.0492:119.0604|119.0492:192.1383:100.0757;192.1385:119.0491:91.0542|119.0491:91.0543:72.0446|91.0542:65.0388:44.0128;119.0494:192.1389:91.0545|119.0494:91.0544:109.0651|119.0494:192.1388:100.076|119.0494:100.076:91.0545|77.0386:105.0446:95.049|77.0386:105.0446:95.049|77.0386:105.0447|77.0386:105.0448,176.1072;120.0514;119.06045;119.0492;118.0645;109.0651;105.04465;100.0757;95.049;91.0543;77.0386;72.0444;65.0388;44.0128,Athens_Univ;CASMI_2016;Eawag;Env_Anal_Chem_U_Tuebingen;UFZ,NA,NA,NA,NA,NA,NA
stpQQR125,"Dibutyl phthalate|dibutyl benzene-1,2-dicarboxylate",CCCCOC(=O)C1=CC=CC=C1C(=O)OCCCC,278.15181,C16H22O4,"InChI=1S/C16H22O4/c1-3-5-11-19-15(17)13-9-7-8-10-14(13)16(18)20-12-6-4-2/h7-10H,3-6,11-12H2,1-2H3",CAS_RN: 84-74-2,3026,DOIRQSBPFJWKBE-UHFFFAOYSA-N,13837319,DTXSID2021781,Positive/Negative,SM822401;EQ367001|EQ367002|EQ367003|EQ367004|EQ367005|EQ367006|EQ367007|EQ367008|EQ367009;UF418001|UF418002|UF418003|UF418004,[M+H]+;[M+H]+;[M+H]+,HCD35;HCD15|HCD30|HCD45|HCD60|HCD75|HCD90|HCD120|HCD150|HCD180;HCD55|HCD80|CID35|CID55,149.0234:205.0861:57.0701;149.0235:205.0862:57.0699|149.0234:57.0699:65.0385|149.0235:57.0699:121.0285|149.0235:121.0285:57.0699|149.0235:121.0285:65.0386|65.0386:149.0235:121.0286|65.0386:121.0398:121.0285|65.0386:53.0023:121.0398|65.0387:53.0023:53.9975;149.0238:121.029|149.0239:121.0288|149.0239:205.0867:203.06|149.0238:205.0867:203.0598,205.08645;203.0599;149.0235;121.0398;121.0285;65.0386;57.0699;53.9975;53.0023,CASMI_2016;Eawag;UFZ,EQ367051|EQ367052|EQ367053|EQ367054|EQ367055|EQ367056|EQ367057|EQ367058|EQ367059,[M-H]-,HCD15|HCD30|HCD45|HCD60|HCD75|HCD90|HCD120|HCD150|HCD180,277.1448:134.0375:127.113|134.0375:127.113:121.0297|134.0375:127.113:121.0297|127.113:121.0297:134.0375|75.0242:121.0297:127.113|75.0242:121.0297:127.113|75.0242:121.0295|75.0241|75.0242,277.1448;134.0375;127.113;121.0297;75.0242,Eawag
stpQQR126,Diphenyl phosphate|diphenyl hydrogen phosphate,OP(=O)(OC1=CC=CC=C1)OC1=CC=CC=C1,250.0395,C12H11O4P,"InChI=1S/C12H11O4P/c13-17(14,15-11-7-3-1-4-8-11)16-12-9-5-2-6-10-12/h1-10H,(H,13,14)",CAS_RN: 838-85-7,13282,ASMQGLCHMVWBQR-UHFFFAOYSA-N,12722,DTXSID1048207,Positive/Negative,SM822501;SM881501,[M+H]+;[M+H]+,HCD35;HCD35,251.0469:95.0492:153.0699;251.0468:95.0492:153.0699,153.0699;95.0492,CASMI_2016;CASMI_2016,SM822551;SM881554,[M-H]-;[M-H]-,HCD35;HCD35,249.0323:154.9904:173.0008;249.0322:154.9904:173.0009,249.03225;173.00085;154.9904,CASMI_2016;CASMI_2016
stpQQR127,"Hexa(methoxymethyl)melamine|2-N,2-N,4-N,4-N,6-N,6-N-hexakis(methoxymethyl)-1,3,5-triazine-2,4,6-triamine",COCN(COC)C1=NC(=NC(=N1)N(COC)COC)N(COC)COC,390.22268,C15H30N6O6,"InChI=1S/C15H30N6O6/c1-22-7-19(8-23-2)13-16-14(20(9-24-3)10-25-4)18-15(17-13)21(11-26-5)12-27-6/h7-12H2,1-6H3",CAS_RN: 3089-11-0,62479,BNCADMBVWNPPIZ-UHFFFAOYSA-N,56259,DTXSID9027520,Positive,SM881201,[M+H]+,HCD35,177.0884:283.1515:207.099,283.1515;207.099;177.0884,CASMI_2016,NA,NA,NA,NA,NA,NA
stpQQR128,Icaridin|Bbutan-2-yl 2-(2-hydroxyethyl)piperidine-1-carboxylate,CCC(C)OC(=O)N1CCCCC1CCO,229.16779,C12H23NO3,"InChI=1S/C12H23NO3/c1-3-10(2)16-12(15)13-8-5-4-6-11(13)7-9-14/h10-11,14H,3-9H2,1-2H3",CAS_RN: 119515-38-7,125098,QLHULAHOXSSASE-UHFFFAOYSA-N,111359,DTXSID0034227,Positive,SM882501;UF420701|UF420702|UF420703|UF420704,[M+H]+;[M+H]+,HCD35;HCD55|HCD80|CID35|CID55,130.1227:112.1121:156.102;130.123:112.1123:95.0859|130.1232:95.0859:112.1126|130.123:174.1131:156.1025|130.1231:174.1131:156.1025,174.1131;156.1025;130.123;112.1123;95.0859,CASMI_2016;UFZ,NA,NA,NA,NA,NA,NA
stpQQR129,Monobenzyl phthalate|2-phenylmethoxycarbonylbenzoic acid,OC(=O)C1=CC=CC=C1C(=O)OCC1=CC=CC=C1,256.07356,C15H12O4,"InChI=1S/C15H12O4/c16-14(17)12-8-4-5-9-13(12)15(18)19-10-11-6-2-1-3-7-11/h1-9H,10H2,(H,16,17)",CAS_RN: 2528-16-7,31736,XIKIUQUXDNHBFR-UHFFFAOYSA-N,29430,DTXSID9043938,Positive/Negative,SM823104;UF420401|UF420402|UF420403|UF420404,[M+H]+;[M+H]+,HCD35;HCD55|HCD80|CID35|CID55,91.0543:149.0234:65.0387;91.0545|91.0545|91.0545:149.0238|91.0545:149.0235,149.0235;91.0545;65.0387,CASMI_2016;UFZ,SM823154;UF420451|UF420452|UF420453|UF420454,[M-H]-;[M-H]-,HCD35;HCD55|HCD80|CID35|CID55,255.0663:183.0815:211.0764;183.0812:77.0397:107.0503|107.0501:77.0399:105.0347|183.0815:211.0763:107.0502|183.0815:211.0765:107.0503,255.0663;211.0764;183.0815;107.05025;105.0347;77.0398,CASMI_2016;UFZ
stpQQR130,Monoethyl phthalate|2-ethoxycarbonylbenzoic acid,CCOC(=O)C1=CC=CC=C1C(O)=O,194.05791,C10H10O4,"InChI=1S/C10H10O4/c1-2-14-10(13)8-6-4-3-5-7(8)9(11)12/h3-6H,2H2,1H3,(H,11,12)",CAS_RN: 2306-33-4,75318,YWWHKOHZGJFMIE-UHFFFAOYSA-N,67856,DTXSID3052696,Negative,NA,NA,NA,NA,NA,NA,SM823251;UF420553|UF420554,[M-H]-;[M-H]-,HCD35;CID35|CID55,193.0506:149.0607:147.0088;121.0659:149.0608:121.0295|121.0659:149.0608:121.0295,193.0506;149.0608;147.0088;121.0659;121.0295,CASMI_2016;UFZ
stpQQR131,Monoisobutyl phthalate|Isobutyl hydrogen phthalate|2-(2-methylpropoxycarbonyl)benzoic acid,CC(C)COC(=O)C1=CC=CC=C1C(O)=O,222.08921,C12H14O4,"InChI=1S/C12H14O4/c1-8(2)7-16-12(15)10-6-4-3-5-9(10)11(13)14/h3-6,8H,7H2,1-2H3,(H,13,14)",CAS_RN: 30833-53-5,92272,RZJSUWQGFCHNFS-UHFFFAOYSA-N,83306,DTXSID5052701,Positive/Negative,SM823305,[M+H]+,HCD35,149.0234:57.0701:121.0285,149.0234;121.0285;57.0701,CASMI_2016,SM823351,[M-H]-,HCD35,134.0372:221.0819:177.092,221.0819;177.092;134.0372,CASMI_2016
stpQQR132,N-Butylbenzenesulfonamide,CCCCNS(=O)(=O)C1=CC=CC=C1,213.08235,C10H15NO2S,"InChI=1S/C10H15NO2S/c1-2-3-9-11-14(12,13)10-7-5-4-6-8-10/h4-8,11H,2-3,9H2,1H3",CAS_RN: 3622-84-2,19241,IPRJXAGUEGOFGG-UHFFFAOYSA-N,18156,DTXSID7027540,Positive,SM878901,[M+H]+,HCD35,141.0004:158.0271:95.0492,158.0271;141.0004;95.0492,CASMI_2016,NA,NA,NA,NA,NA,NA
stpQQR133,N-Ethyl-o-toluenesulfonamide|N-ethyl-2-methylbenzenesulfonamide,CCNS(=O)(=O)C1=C(C)C=CC=C1,199.0667,C9H13NO2S,"InChI=1S/C9H13NO2S/c1-3-10-13(11,12)9-7-5-4-6-8(9)2/h4-7,10H,3H2,1-2H3",CAS_RN: 8047-99-2,14110,NATWUQFQFMZVMT-UHFFFAOYSA-N,13488,DTXSID5052416,Positive,SM881601,[M+H]+,HCD35,155.0161:91.0542:119.0604,155.0161;119.0604;91.0542,CASMI_2016,NA,NA,NA,NA,NA,NA
stpQQR134,"Perfluorobutanoic acid|Heptafluorobutyric acid|2,2,3,3,4,4,4-heptafluorobutanoic acid",OC(=O)C(F)(F)C(F)(F)C(F)(F)F,213.98648,C4HF7O2,"InChI=1S/C4HF7O2/c5-2(6,1(12)13)3(7,8)4(9,10)11/h(H,12,13)",CAS_RN: 375-22-4,9777,YPJUNDFVDDCYIH-UHFFFAOYSA-N,9394,DTXSID4059916,Negative,NA,NA,NA,NA,NA,NA,SM823751;EA271351|EA271352|EA271353|EA271357|EA271358|EA271359|EA271360,[M-H]-;[M-H]-,HCD35;CID35|HCD15|HCD30|HCD90|HCD15|HCD30|HCD45,168.9894:212.979;168.9896:212.9789|168.9896:212.9791|168.9897|168.9897|168.9893:212.9784|168.9893|168.9892,212.97895;168.9895,CASMI_2016;Eawag
stpQQR135,Phenylbenzimidazole sulfonic acid|27503-81-7|2-phenyl-3H-benzimidazol-1-ium-5-sulfonate,OS(=O)(=O)C1=CC=C2N=C(NC2=C1)C1=CC=CC=C1,274.04121,C13H10N2O3S,"InChI=1S/C13H10N2O3S/c16-19(17,18)10-6-7-11-12(8-10)15-13(14-11)9-4-2-1-3-5-9/h1-8H,(H,14,15)(H,16,17,18)",CAS_RN: 27503-81-7,33919,UVCJGUGAGLDPAA-UHFFFAOYSA-N,31267,DTXSID3038852,Positive/Negative,SM823802;SM878701;TUE00581|TUE00582|TUE00583,[M+H]+;[M+H]+;[M+H]+,HCD35;HCD35;NA10.0V|NA20.0V|NA40.0V,275.0484:194.0839:195.0917;275.0484:194.0839:195.0917;275.0487:194.0835|275.0486:194.0837:195.0917|194.0838:193.076:195.0919,195.0917;194.0838;193.076,CASMI_2016;CASMI_2016;Env_Anal_Chem_U_Tuebingen,SM823851;SM878751;TUE00585|TUE00586|TUE00587;UF417251|UF417252|UF417253|UF417254,[M-H]-;[M-H]-;[M-H]-;[M-H]-,HCD35;HCD35;NA10.0V|NA20.0V|NA40.0V;HCD55|HCD80|CID35|CID55,273.034:193.0771:209.0721;273.0341:193.0772:209.0716;273.0338:193.077|193.077:273.0337:209.0719|193.077:79.9571:208.0639;273.0339|273.0338:193.0769|193.0772|193.0771,273.03385;209.0719;208.0639;193.07705;79.9571,CASMI_2016;CASMI_2016;Env_Anal_Chem_U_Tuebingen;UFZ
stpQQR136,"Tetrabromobisphenol A|2,6-dibromo-4-[2-(3,5-dibromo-4-hydroxyphenyl)propan-2-yl]phenol",CC(C)(C1=CC(Br)=C(O)C(Br)=C1)C1=CC(Br)=C(O)C(Br)=C1,539.75708,C15H12Br4O2,"InChI=1S/C15H12Br4O2/c1-15(2,7-3-9(16)13(20)10(17)4-7)8-5-11(18)14(21)12(19)6-8/h3-6,20-21H,1-2H3",CAS_RN: 79-94-7,6618,VEORPZCZECFIRK-UHFFFAOYSA-N,6366,DTXSID1026081,Negative,NA,NA,NA,NA,NA,NA,SM863853,[M-H]-,HCD35,538.7499:288.887:443.8019,538.7499;443.8019;288.887,CASMI_2016
stpQQR137,"Tetrachlorosalicylanilide|2,3,4,5-tetrachloro-6-hydroxy-N-phenylbenzamide",OC1=C(Cl)C(Cl)=C(Cl)C(Cl)=C1C(=O)NC1=CC=CC=C1,348.92309,C13H7Cl4NO2,"InChI=1S/C13H7Cl4NO2/c14-8-7(12(19)11(17)10(16)9(8)15)13(20)18-6-4-2-1-3-5-6/h1-5,19H,(H,18,20)",CAS_RN: 7426-07-5,124579,BDOBMVIEWHZYDL-UHFFFAOYSA-N,110942,DTXSID90225265,Negative,NA,NA,NA,NA,NA,NA,SM864051,[M-H]-,HCD35,347.9157:160.9567:124.9795,347.9157;160.9567;124.9795,CASMI_2016
stpQQR138,Tri(butoxyethyl) phosphate|tris(2-butoxyethyl) phosphate,CCCCOCCOP(=O)(OCCOCCCC)OCCOCCCC,398.24334,C18H39O7P,"InChI=1S/C18H39O7P/c1-4-7-10-20-13-16-23-26(19,24-17-14-21-11-8-5-2)25-18-15-22-12-9-6-3/h4-18H2,1-3H3",CAS_RN: 78-51-3,6540,WTLBZVNBAKMVDP-UHFFFAOYSA-N,6292,DTXSID5021758,Positive,SM824402;SM880602,[M+H]+;[M+H]+,HCD35;HCD35,299.1621:399.2511:199.0731;57.0701:299.1619:399.2508,299.162;199.0731;57.0701,CASMI_2016;CASMI_2016,NA,NA,NA,NA,NA,NA