NORMAN_ID,NAME,SMILES,NEUTRAL_EXACT_MASS,FORMULA,StdInChI,CAS_RN,PUBCHEM_CID,InChIKey,CHEMSPIDER_ID,DTXSID,Preferable Ionization,MB_Records Positive Ionization,Adduct Positive Ionization,Ionisation type and collision energy Positive Ionization,Fragments Positive Ionization,Simplified_fragments_Positive,Institute Positive Ionization,MB_Records Negative Ionization,Adduct Negative Ionization,Ionisation type and collision energy Negative Ionization,Fragments Negative Ionization,Simplified_fragments_Negative,Institute Negative Ionization
stpQQR1003,Aspartame|3-amino-4-[(1-benzyl-2-keto-2-methoxy-ethyl)amino]-4-keto-butyric acid,COC(=O)C(CC1=CC=CC=C1)NC(=O)C(CC(=O)O)N,294.1216,C14H18N2O5,"InChI=1S/C14H18N2O5/c1-21-14(20)11(7-9-5-3-2-4-6-9)16-13(19)10(15)8-12(17)18/h2-6,10-11H,7-8,15H2,1H3,(H,16,19)(H,17,18)",CAS_RN: 22839-47-0,2242,IAOZJIPTCAWIRG-GHMZBOCLSA-N,2155,NA,Positive/Negative,EA277001|EA277002|EA277003|EA277004|EA277005|EA277006|EA277007|EA277008|EA277009|EA277010|EA277011|EA277012|EA277013|EA277014,[M+H]+,CID35|HCD15|HCD30|HCD45|HCD60|HCD75|HCD90|HCD15|HCD30|HCD45|HCD60|HCD75|HCD90|CID35,277.1186:235.1079:263.1026|295.1289:235.1078:277.118|180.102:235.1077:120.0808|120.081:180.1021:175.0867|120.0808:91.0542:88.0393|120.0808:91.0542:121.0648|120.081:103.0544:91.0543|295.1292:235.1078:277.1183|180.102:235.1078:120.0808|120.0808:175.0866:180.1019|120.0809:91.0543:88.0394|120.0809:91.0543:103.0543|120.0808:103.0543:91.0543|277.1184:235.1079:263.1028,277.11835;263.1027;235.1078;180.102;175.08665;121.0648;120.0808;103.0543;91.0543;88.03935,Eawag,EA277051|EA277052|EA277053|EA277054|EA277055|EA277056|EA277057|EA277058|EA277059|EA277060|EA277061|EA277062|EA277064,[M-H]-,CID35|HCD15|HCD30|HCD45|HCD60|HCD75|HCD90|HCD15|HCD30|HCD45|HCD60|HCD75|CID35,261.0883:200.072:217.0986|293.1145:261.0881:200.0719|200.0719:217.0985:261.0881|200.0718:97.0407:146.0613|97.0408:118.0666:200.0716|118.0662:97.0405|118.0663:97.0409|261.088:293.1144:200.0717|200.0718:217.0981:261.0881|200.0717:97.0406:146.061|97.0407:200.0719:189.1037|118.0658|261.0879:200.0716:275.1037,293.11445;275.1037;261.0881;217.0985;200.0718;189.1037;146.06115;118.06625;97.0407,Eawag
stpQQR1004,Cetirizine|2-[2-[4-[(4-chlorophenyl)-phenyl-methyl]piperazin-1-yl]ethoxy]ethanoic acid,C1CN(CCN1CCOCC(=O)O)C(C2=CC=CC=C2)C3=CC=C(C=C3)Cl,388.1554,C21H25ClN2O3,"InChI=1S/C21H25ClN2O3/c22-19-8-6-18(7-9-19)21(17-4-2-1-3-5-17)24-12-10-23(11-13-24)14-15-27-16-20(25)26/h1-9,21H,10-16H2,(H,25,26)",CAS_RN: 83881-51-0,2678,ZKLPARSLTMPFCP-UHFFFAOYSA-N,2577,DTXSID4022787,Positive/Negative,SM858203;EA277201|EA277202|EA277203|EA277204|EA277205|EA277206|EA277207|EA277208|EA277209|EA277210|EA277211|EA277212|EA277213|EA277214;UF411001|UF411002|UF411003|UF411004,[M+H]+;[M+H]+;[M+H]+,HCD35;CID35|HCD15|HCD30|HCD45|HCD60|HCD75|HCD90|HCD15|HCD30|HCD45|HCD60|HCD75|HCD90|CID35;HCD55|HCD80|CID35|CID55,201.0465:166.0777:389.1626;201.0466:187.1076:166.0773|389.1621:201.0463:187.1074|201.0463:187.1073:165.0684|201.0463:166.0772:165.0703|201.0462:166.0774:165.0697|166.0774:165.0696:201.046|165.0697:166.0775:199.0303|389.1619:201.0462:187.1075|201.0463:187.1076:166.0772|201.0463:166.0775:165.0695|201.0463:166.0775:165.0697|166.0774:165.0696:201.0461|165.0697:166.0775:201.0465|201.0464:187.1075:166.0775;201.0466:166.0778:165.07|166.0778:165.0701:201.0468|201.0467:166.0779:187.1079|201.0466:166.0779:187.108,201.0463;199.0303;187.10755;166.0775;165.0697,CASMI_2016;Eawag;UFZ,SM858253;EA277251|EA277252|EA277253|EA277254|EA277258|EA277259|EA277260|EA277264;UF411051|UF411052|UF411053|UF411054,[M-H]-;[M-H]-;[M-H]-,HCD35;CID35|HCD15|HCD30|HCD45|HCD15|HCD30|HCD45|CID35;HCD55|HCD80|CID35|CID55,387.1483:101.0232:185.0933;185.0934:199.0318|387.1483|387.1483:75.0089|75.0085:387.1481|387.1479|387.1479|387.1469|199.0311:185.0934;387.1476|387.1483|341.0685|341.0682,387.1481;341.06835;199.03145;185.0934;101.0232;75.0087,CASMI_2016;Eawag;UFZ
stpQQR1005,"Irbesartan|8-butyl-7-[4-[2-(2H-tetrazol-5-yl)phenyl]benzyl]-7,9-diazaspiro[4.4]non-8-en-6-one",C12(C(N(Cc3ccc(c4c(c5[nH]nnn5)cccc4)cc3)C(=N1)CCCC)=O)CCCC2,428.2325,C25H28N6O,"InChI=1S/C25H28N6O/c1-2-3-10-22-26-25(15-6-7-16-25)24(32)31(22)17-18-11-13-19(14-12-18)20-8-4-5-9-21(20)23-27-29-30-28-23/h4-5,8-9,11-14H,2-3,6-7,10,15-17H2,1H3,(H,27,28,29,30)",CAS_RN: 138402-11-6,3749,YOSHYTLCDANDAN-UHFFFAOYSA-N,3618,DTXSID0023169,Positive/Negative,AU209402|AU209403|AU209404|AU209405;SM818701;EA277401|EA277402|EA277403|EA277404|EA277405|EA277406|EA277407|EA277408|EA277409|EA277410|EA277411|EA277412|EA277413|EA277414,[M+H]+;[M+H]+;[M+H]+,CID20|CID30|CID40|CID50;HCD35;CID35|HCD15|HCD30|HCD45|HCD60|HCD75|HCD90|HCD15|HCD30|HCD45|HCD60|HCD75|HCD90|CID35,207.0911:429.2402:430.2434|207.0909:195.1484:208.094|207.0912:208.0944:180.0798|207.091:180.0798:208.0942;207.0918:429.2402:195.1494;207.0917:401.2334:195.1492|429.2398:207.0909:401.2333|207.0916:195.1491:429.2394|207.0916:195.149:192.0802|207.0916:180.0806:206.0837|180.0806:205.0759:207.0914|205.0759:180.0807:165.0698|429.2397:207.0913:401.2335|207.0917:195.1492:429.2394|207.0918:195.1492:192.0807|207.0918:180.0807:206.0839|180.0807:205.076:207.0916|205.076:180.0807:152.062|207.0917:401.2333:195.1492,401.23335;208.0942;207.0916;206.0838;205.07595;195.1492;192.08045;180.08065;165.0698;152.062,Athens_Univ;CASMI_2016;Eawag,AU209451|AU209452|AU209453|AU209454|AU209455;SM818756;EA277451|EA277452|EA277453|EA277454|EA277455|EA277456|EA277457|EA277458|EA277459|EA277460|EA277461|EA277462|EA277463|EA277464,[M-H]-;[M-H]-;[M-H]-,CID10|CID20|CID30|CID40|CID50;HCD35;CID35|HCD15|HCD30|HCD45|HCD60|HCD75|HCD90|HCD15|HCD30|HCD45|HCD60|HCD75|HCD90|CID35,427.2193:428.2241|193.133:427.2205:428.2198|193.1328:194.1373|193.1325:194.1371|193.133:164.0946;193.1346:427.225:399.219;193.1346:399.219:371.2127|427.2257|193.1347:427.2251:399.2191|193.1346|193.1347:164.0957:138.0801|193.1347:164.0957:121.0407|121.0407:164.0957:193.1347|427.2253:193.1355|193.1347:427.2254:399.2193|193.1346:164.0959:195.081|193.1347:164.0956:138.0802|193.1346:164.0954:121.0407|121.0407:164.0954:193.1346|193.1345:399.2187:371.2124,427.2251;399.219;371.21255;195.081;194.1372;193.1346;164.09565;138.08015;121.0407,Athens_Univ;CASMI_2016;Eawag
stpQQR1006,Eprosartan|4-[[2-butyl-5-[(E)-3-hydroxy-3-keto-2-(2-thenyl)prop-1-enyl]imidazol-1-yl]methyl]benzoic acid,CCCCC1=NC=C(N1CC2=CC=C(C=C2)C(=O)O)/C=C(\CC3=CC=CS3)/C(=O)O,424.1457,C23H24N2O4S,"InChI=1S/C23H24N2O4S/c1-2-3-6-21-24-14-19(12-18(23(28)29)13-20-5-4-11-30-20)25(21)15-16-7-9-17(10-8-16)22(26)27/h4-5,7-12,14H,2-3,6,13,15H2,1H3,(H,26,27)(H,28,29)/b18-12+",CAS_RN: 133040-01-4,5281037,OROAFUQRIXKEMV-LDADJPATSA-N,4444504,DTXSID0022989,Positive/Negative,EA277601|EA277602|EA277603|EA277604|EA277605|EA277606|EA277607|EA277608|EA277609|EA277610|EA277611|EA277612|EA277613|EA277614,[M+H]+,CID35|HCD15|HCD30|HCD45|HCD60|HCD75|HCD90|HCD15|HCD30|HCD45|HCD60|HCD75|HCD90|CID35,207.1129:341.1495:407.1422|425.1527|425.1528:207.1128:341.1496|135.0441:207.1127:163.1229|135.0442:107.0492:163.1231|107.0491:135.044:201.048|107.0491:135.0439:97.0106|425.1526|425.1525:207.1127:341.1494|135.0441:207.1128:163.1229|135.0441:107.0491:163.123|107.0491:135.044:201.0479|107.0491:135.044:174.037|207.1127:341.1492:407.1418,407.142;341.14945;207.11275;201.04795;174.037;163.12295;135.04405;107.0491;97.0106,Eawag,EA277651|EA277652|EA277653|EA277654|EA277655|EA277656|EA277657|EA277658|EA277659|EA277660|EA277661|EA277662|EA277663|EA277664,[M-H]-,CID35|HCD15|HCD30|HCD45|HCD60|HCD75|HCD90|HCD15|HCD30|HCD45|HCD60|HCD75|HCD90|CID35,379.1486:281.1293:405.1275|423.1388:379.1487:405.1268|379.1489:244.1041:335.1588|244.1041:215.065:245.1117|215.0648:245.1123:201.05|82.9961:215.0649:123.0925|82.9962:148.0227|423.1384:379.1486|379.1485:244.1037:335.1583|244.104:215.065:245.1112|215.065:245.1114:201.0491|82.9962:215.0648:123.0923|82.9959:148.0228|379.1483:281.1294:405.1274,423.1386;405.1274;379.1486;335.15855;281.12935;245.11155;244.10405;215.06495;201.04955;148.02275;123.0924;82.99615,Eawag
stpQQR1007,"Foramsulfuron|2-[(4,6-dimethoxypyrimidin-2-yl)carbamoylsulfamoyl]-4-formamido-N,N-dimethyl-benzamide",O=C(Nc1nc(OC)cc(OC)n1)NS(=O)(=O)c2cc(NC=O)ccc2C(=O)N(C)C,452.1114,C17H20N6O7S,"InChI=1S/C17H20N6O7S/c1-23(2)15(25)11-6-5-10(18-9-24)7-12(11)31(27,28)22-17(26)21-16-19-13(29-3)8-14(20-16)30-4/h5-9H,1-4H3,(H,18,24)(H2,19,20,21,22,26)",CAS_RN: 173159-57-4,11419598,PXDNXJSDGQBLKS-UHFFFAOYSA-N,9594484,DTXSID7034753,Positive/Negative,EA277801|EA277802|EA277803|EA277804|EA277805|EA277806|EA277807|EA277808|EA277809|EA277810|EA277811|EA277812|EA277813|EA277814,[M+H]+,CID35|HCD15|HCD30|HCD45|HCD60|HCD75|HCD90|HCD15|HCD30|HCD45|HCD60|HCD75|HCD90|CID35,408.0606:272.0697:182.0558|182.0561:272.0699:453.1189|182.0562:255.0433:156.0768|182.056:255.0431:156.0767|182.056:83.024:157.0607|83.024:139.0502:182.0559|83.024:139.0501:157.0605|182.0559:272.0696:453.1182|182.0559:255.0432:156.0766|182.056:255.0432:156.0767|182.0559:83.0239:157.0607|83.024:139.0502:157.0607|83.024:139.0501:157.0607|408.0606:272.0698:182.0559,408.0606;272.06975;255.0432;182.0559;157.0607;156.0767;139.05015;83.024,Eawag,EA277851|EA277852|EA277853|EA277854|EA277855|EA277856|EA277857|EA277858|EA277859|EA277860|EA277861|EA277863|EA277864,[M-H]-,CID35|HCD15|HCD30|HCD45|HCD60|HCD75|HCD90|HCD15|HCD30|HCD45|HCD60|HCD90|CID35,296.0349:268.0398:270.0553|296.0352:268.0403:451.1051|268.0401:296.0348:270.0558|268.04:154.0625:252.0454|268.0397:154.0625:122.0362|65.9986:154.0622:122.0364|65.9986:122.0356|296.035:268.0401:451.1043|268.0401:296.0349:270.0556|268.0401:154.0625:252.045|268.0397:154.0625:224.9978|65.9986|296.0346:268.0398:270.0553,451.1047;296.0349;270.05545;268.04005;252.0452;224.9978;154.0625;122.0362;65.9986,Eawag
stpQQR1008,Pyraclostrobin|methyl [2-({[1-(4-chlorophenyl)-1H-pyrazol-3-yl]oxy}methyl)phenyl]methoxycarbamate,c1(ccc(n2ccc(OCc3c(cccc3)N(OC)C(OC)=O)n2)cc1)Cl,387.0986,C19H18ClN3O4,"InChI=1S/C19H18ClN3O4/c1-25-19(24)23(26-2)17-6-4-3-5-14(17)13-27-18-11-12-22(21-18)16-9-7-15(20)8-10-16/h3-12H,13H2,1-2H3",CAS_RN: 175013-18-0,6422843,HZRSNVGNWUDEFX-UHFFFAOYSA-N,4928348,DTXSID7032638,Positive,SM846802;EA277901|EA277902|EA277903|EA277904|EA277905|EA277906|EA277907|EA277908|EA277909|EA277910|EA277911|EA277912|EA277913|EA277914,[M+H]+;[M+H]+,HCD35;CID35|HCD15|HCD30|HCD45|HCD60|HCD75|HCD90|HCD15|HCD30|HCD45|HCD60|HCD75|HCD90|CID35,194.0813:163.0628:164.0706;194.0813:296.0584:356.0793|194.0812:164.0707:296.0583|163.063:164.0707:149.0472|163.0629:149.0472:133.0522|163.0628:133.0522:149.0472|105.0573:133.0522:132.0444|104.0494:120.0443:132.0443|194.0811:164.0705:296.0581|163.0628:164.0705:149.0471|163.0628:149.0471:133.0522|163.0628:133.0522:149.0472|105.0573:133.0522:132.0444|104.0495:132.0444:105.0573|194.0813:296.0584:356.0793,356.0793;296.05835;194.0813;164.0706;163.0628;149.0472;133.0522;132.0444;120.0443;105.0573;104.04945,CASMI_2016;Eawag,NA,NA,NA,NA,NA,NA
stpQQR1009,"Codeine|(5,6)-3-Methoxy-17-methyl-7,8-didehydro-4,5-epoxymorphinan-6-ol|Methylmorphine",CN1CC[C@]23[C@@H]4[C@H]1CC5=C2C(=C(C=C5)OC)O[C@H]3[C@H](C=C4)O,299.1521,C18H21NO3,"InChI=1S/C18H21NO3/c1-19-8-7-18-11-4-5-13(20)17(18)22-16-14(21-2)6-3-10(15(16)18)9-12(11)19/h3-6,11-13,17,20H,7-9H2,1-2H3/t11-,12+,13-,17-,18-/m0/s1",CAS_RN: 76-57-3,5284371,OROGSEYTTFOCAN-DNJOTXNNSA-N,4447447,DTXSID2020341,Positive,AU162301|AU162302|AU162303|AU162304|AU162305;EA278001|EA278002|EA278003|EA278004|EA278005|EA278006|EA278007|EA278008|EA278009|EA278010|EA278011|EA278012|EA278013|EA278014,[M+H]+;[M+H]+,CID10|CID20|CID30|CID40|CID50;CID35|HCD15|HCD30|HCD45|HCD60|HCD75|HCD90|HCD15|HCD30|HCD45|HCD60|HCD75|HCD90|CID35,300.1615:301.1647:302.1669|300.1617:301.165:243.1026|300.1621:301.1651:215.1084|199.0764:165.0707:300.1613|165.0709:153.0706:181.0662;215.1066:243.1015:225.0909|300.1593|300.1592:243.1015:215.1071|300.1595:215.1067:243.1015|300.1599:215.1067:199.0754|165.0699:199.0753:181.0648|165.0698:153.0698:181.0647|300.1591|300.1592:243.1014:282.149|300.1593:215.1066:243.1015|300.1591:215.1065:199.0752|165.0698:199.0753:181.0647|165.0698:153.0697:181.0647|215.1066:243.1015:225.0909,282.149;243.1015;225.0909;215.10665;199.0753;181.0647;165.06985;153.0698,Athens_Univ;Eawag,NA,NA,NA,NA,NA,NA
stpQQR1010,Metoclopramide|4-amino-5-chloro-N-(2-diethylaminoethyl)-2-methoxy-benzamide,c1(cc(C(=O)NCCN(CC)CC)c(cc1N)OC)Cl,299.1401,C14H22ClN3O2,"InChI=1S/C14H22ClN3O2/c1-4-18(5-2)7-6-17-14(19)10-8-11(15)12(16)9-13(10)20-3/h8-9H,4-7,16H2,1-3H3,(H,17,19)",CAS_RN: 364-62-5,4168,TTWJBBZEZQICBI-UHFFFAOYSA-N,4024,DTXSID6045169,Positive,EA278101|EA278102|EA278103|EA278104|EA278105|EA278106|EA278107|EA278108|EA278109|EA278110|EA278111|EA278112|EA278113|EA278114,[M+H]+,CID35|HCD15|HCD30|HCD45|HCD60|HCD75|HCD90|HCD15|HCD30|HCD45|HCD60|HCD75|HCD90|CID35,227.0584:184.016:212.0337|300.1479:227.0584:184.0155|227.0582:300.1474:184.0159|227.0583:184.016:183.032|184.016:227.0581:212.0346|184.016:212.0346:183.032|184.016:140.9976:168.0085|300.1474:227.0579:184.0154|227.0583:300.1477:184.0159|227.0583:184.016:183.0318|184.0161:227.0582:183.032|184.016:212.0347:183.032|184.016:140.9976:168.0085|227.0582:184.016:212.0342,227.05825;212.0346;184.016;183.032;168.0085;140.9976,Eawag,NA,NA,NA,NA,NA,NA
stpQQR1011,Ethambutol|(2S)-2-[2-[[(1S)-1-methylolpropyl]amino]ethylamino]butan-1-ol,N([C@@H](CC)CO)CCN[C@@H](CC)CO,204.1838,C10H24N2O2,"InChI=1S/C10H24N2O2/c1-3-9(7-13)11-5-6-12-10(4-2)8-14/h9-14H,3-8H2,1-2H3/t9-,10-/m0/s1",CAS_RN: 74-55-5,14052,AEUTYOVWOVBAKS-UWVGGRQHSA-N,13433,DTXSID8023006,Positive,EA278201|EA278202|EA278203|EA278204|EA278205|EA278208|EA278209|EA278210|EA278211|EA278214,[M+H]+,CID35|HCD15|HCD30|HCD45|HCD60|HCD15|HCD30|HCD45|HCD60|CID35,116.1069|205.1908|116.1067|116.1067|116.1064|205.1909|205.1911:116.1068|116.1069|116.1067|116.107,116.10675,Eawag,NA,NA,NA,NA,NA,NA
stpQQR1012,"Prednisolone|1-Dehydrohydrocortisone|(8S,9S,10R,11S,13S,14S,17R)-10,13-dimethyl-11,17-bis(oxidanyl)-17-(2-oxidanylethanoyl)-7,8,9,11,12,14,15,16-octahydro-6H-cyclopenta[a]phenanthren-3-one",C1[C@H]2[C@H]3[C@@H]([C@@]4(C(=CC(=O)C=C4)CC3)C)[C@@H](O)C[C@@]2([C@](C(CO)=O)(O)C1)C,360.1937,C21H28O5,"InChI=1S/C21H28O5/c1-19-7-5-13(23)9-12(19)3-4-14-15-6-8-21(26,17(25)11-22)20(15,2)10-16(24)18(14)19/h5,7,9,14-16,18,22,24,26H,3-4,6,8,10-11H2,1-2H3/t14-,15-,16-,18+,19-,20-,21-/m0/s1",CAS_RN: 50-24-8,5755,OIGNJSKKLXVSLS-VWUMJDOOSA-N,5552,DTXSID9021184,Positive,EA278301|EA278302|EA278303|EA278304|EA278305|EA278306|EA278307|EA278308|EA278309|EA278310|EA278311|EA278312|EA278313|EA278314;UF415701|UF415702|UF415703|UF415704,[M+H]+;[M+H]+,CID35|HCD15|HCD30|HCD45|HCD60|HCD75|HCD90|HCD15|HCD30|HCD45|HCD60|HCD75|HCD90|CID35;HCD55|HCD80|CID35|CID55,343.19:325.1795:307.1689|343.1902:325.179:307.1694|147.0804:343.1896:289.1581|147.0802:171.0806:173.0955|147.0805:121.0648:171.08|147.0802:121.0645:171.0808|121.0645|343.1899:325.18:307.1695|147.0804:343.1897:173.0956|147.0806:173.0959:171.08|171.0802:147.0806|147.0804:121.0648:119.0857|121.0648|343.1901:325.1795:307.1689;163.1116:121.0646:145.101|105.0696:121.0645:163.1114|343.1899:163.1115:325.1795|163.1115:343.1898:325.1794,343.1899;325.1795;307.16915;289.1581;173.0956;171.0802;163.1115;147.0804;145.101;121.0646;119.0857;105.0696,Eawag;UFZ,NA,NA,NA,NA,NA,NA
stpQQR1013,"DDAO| N,N-dimethyl-1-decanamine oxide|NN-Dimethyldicylamine N-oxide",N(C)(CCCCCCCCCC)(C)=O,201.2093,C12H27NO,"InChI=1S/C12H27NO/c1-4-5-6-7-8-9-10-11-12-13(2,3)14/h4-12H2,1-3H3",CAS_RN: 2605-79-0,62452,ZRKZFNZPJKEWPC-UHFFFAOYSA-N,56233,DTXSID7042190,Positive,EA278401|EA278402|EA278403|EA278404|EA278405|EA278406|EA278407|EA278408|EA278409|EA278410|EA278411|EA278412|EA278413|EA278414,[M+H]+,CID35|HCD15|HCD30|HCD45|HCD60|HCD75|HCD90|HCD15|HCD30|HCD45|HCD60|HCD75|HCD90|CID35,184.2058:202.2163:185.2137|202.2163|202.2165:58.0651:184.2062|202.2164:58.0651:184.206|58.0651:202.2164:184.2059|58.0651:62.06:57.0698|58.0651:62.06:57.0698|202.2163|202.2164:58.0651:184.2059|202.2163:58.0651:184.2058|58.0651:202.2164:184.2057|58.0651:62.06:57.0698|58.0651:62.06:57.0698|184.2058:185.2136:62.06,185.21365;184.20585;62.06;58.0651;57.0698,Eawag,NA,NA,NA,NA,NA,NA
stpQQR1014,"Spiroxamine|(8-tert-butyl-1,4-dioxaspiro[4.5]decan-3-yl)methyl-ethyl-propyl-amine",CCCN(CC)CC1COC2(O1)CCC(CC2)C(C)(C)C,297.2668,C18H35N1O2,"InChI=1S/C18H35NO2/c1-6-12-19(7-2)13-16-14-20-18(21-16)10-8-15(9-11-18)17(3,4)5/h15-16H,6-14H2,1-5H3",CAS_RN: 118134-30-8,86160,PUYXTUJWRLOUCW-UHFFFAOYSA-N,77719,DTXSID1034212,Positive,SM840301;EA278901|EA278902|EA278903|EA278904|EA278905|EA278906|EA278907|EA278908|EA278909|EA278910|EA278911|EA278912|EA278913|EA278914;ET180001|ET180002|ET180003|ET180004|ET180005;UF401901|UF401902|UF401903|UF401904,[M+H]+;[M+H]+;[M+H]+;[M+H]+,"HCD35;CID35|HCD15|HCD30|HCD45|HCD60|HCD75|HCD90|HCD15|HCD30|HCD45|HCD60|HCD75|HCD90|CID35;HCD15, 30, 45, 60, 70 or 90|HCD15, 30, 45, 60, 70 or 90|HCD15, 30, 45, 60, 70 or 90|HCD15, 30, 45, 60, 70 or 90|HCD15, 30, 45, 60, 70 or 90;HCD55|HCD80|CID35|CID55",144.1383:298.2742:100.1121;144.1385:100.1122:240.2322|298.2743:144.1386|298.2742:144.1385:100.1122|144.1383:100.1121:298.2746|144.1384:100.1122:72.0808|100.1122:144.1384:72.0808|100.1121:72.0808:144.1382|298.2741:144.1381|298.2742:144.1384:100.1121|144.1384:100.1121:298.2741|144.1383:100.1121:72.0808|100.1122:144.1384:72.0808|100.1121:72.0808:144.1383|144.1384:100.1121:240.2321;144.1386:100.1122:72.081|100.1123:144.1386:72.081|100.1122:72.081:144.1385|100.1122:72.081:58.0656|298.2742:144.1384:100.1117;144.1381:100.112:72.0807|100.1119:144.1382:72.0806|144.1382:100.112:298.2741|144.1381:100.112:202.1227,240.23215;202.1227;144.1384;100.1121;72.0808;58.0656,CASMI_2016;Eawag;Eawag_Additional_Specs;UFZ,NA,NA,NA,NA,NA,NA
stpQQR1015,"Rosuvastatin|(E,3R,5R)-7-[4-(4-fluorophenyl)-2-(methyl-methylsulfonylamino)-6-propan-2-ylpyrimidin-5-yl]-3,5-dihydroxyhept-6-enoic acid",c1(nc(N(S(=O)(=O)C)C)nc(c1\C=C\[C@@H](C[C@H](CC(O)=O)O)O)c1ccc(cc1)F)C(C)C,481.1683,C22H28FN3O6S,"InChI=1S/C22H28FN3O6S/c1-13(2)20-18(10-9-16(27)11-17(28)12-19(29)30)21(14-5-7-15(23)8-6-14)25-22(24-20)26(3)33(4,31)32/h5-10,13,16-17,27-28H,11-12H2,1-4H3,(H,29,30)/b10-9+/t16-,17+/m0/s1",CAS_RN: 287714-41-4,6439133,BPRHUIZQVSMCRT-YXWZHEERSA-N,4943566,NA,Positive/Negative,EA280201|EA280202|EA280203|EA280204|EA280205|EA280206|EA280207|EA280208|EA280209|EA280210|EA280211|EA280212|EA280213|EA280214,[M+H]+,CID35|HCD15|HCD30|HCD45|HCD60|HCD75|HCD90|HCD15|HCD30|HCD45|HCD60|HCD75|HCD90|CID35,446.1541:464.1648:376.1489|482.1751|482.1751:258.1399:272.1556|258.14:300.1504:272.1556|258.14:300.1505:270.1399|256.1243:242.1088:133.0447|133.0447:242.1087:254.1084|482.1751|482.1752:258.1398:272.1556|258.1399:300.1506:272.1556|258.1399:300.1506:270.1401|256.1243:242.1086:133.0447|133.0448:242.1087:254.1086|446.154:464.1645:376.1486,464.16465;446.15405;376.14875;300.15055;272.1556;270.14;258.1399;256.1243;254.1085;242.1087;133.0447,Eawag,EA280251|EA280252|EA280253|EA280254|EA280255|EA280256|EA280257|EA280258|EA280259|EA280260|EA280261|EA280262|EA280263|EA280264,[M-H]-,CID35|HCD15|HCD30|HCD45|HCD60|HCD75|HCD90|HCD15|HCD30|HCD45|HCD60|HCD75|HCD90|CID35,418.16:398.1537:392.1442|480.1614:418.1606:392.144|340.183:298.1357:78.9859|298.1359:244.1259:78.9858|298.1355:63.9626:244.1252|63.9625|63.9625|480.161:418.1598:392.1436|340.1832:298.1357:78.9859|298.136:244.1251:78.9859|298.1357:244.1251:78.9859|78.9858:63.9626:244.1251|63.9626:76.9703|418.16:398.1536:392.1444,480.1612;418.16;398.15365;392.1441;340.1831;298.1357;244.1251;78.9859;76.9703;63.9626,Eawag