NORMAN_ID,NAME,SMILES,NEUTRAL_EXACT_MASS,FORMULA,StdInChI,CAS_RN,PUBCHEM_CID,InChIKey,CHEMSPIDER_ID,DTXSID,Preferable Ionization,MB_Records Positive Ionization,Adduct Positive Ionization,Ionisation type and collision energy Positive Ionization,Fragments Positive Ionization,Simplified_fragments_Positive,Institute Positive Ionization,MB_Records Negative Ionization,Adduct Negative Ionization,Ionisation type and collision energy Negative Ionization,Fragments Negative Ionization,Simplified_fragments_Negative,Institute Negative Ionization
stpQQR927,"Metazachlor ESA|2-[(2,6-dimethylphenyl)(1H-pyrazol-1-ylmethyl)amino]-2-oxoethanesulfonic acid",O=C(N(C1=C(C=CC=C1C)C)CN2C=CC=N2)CS(O)(=O)=O,323.094,C14H17N3O4S,"InChI=1S/C14H17N3O4S/c1-11-5-3-6-12(2)14(11)17(10-16-8-4-7-15-16)13(18)9-22(19,20)21/h3-8H,9-10H2,1-2H3,(H,19,20,21)",CAS_RN: 172960-62-2,NA,IPVCSECPEVHQOV-UHFFFAOYSA-N,28290254,DTXSID40891454,Positive/Negative,AU206101|AU206102|AU206103|AU206104|AU206105,[M+H]+,CID10|CID20|CID30|CID40|CID50,256.0635:324.1014:257.0677|134.0952:256.0635:135.0987|134.0952:135.0987:160.0758|134.0956:135.0987|134.0957:135.0987:160.0738,257.0677;256.0635;160.0748;135.0987;134.0954,Athens_Univ,EA070551|EA070552|EA070553|EA070554|EA070555|EA070556|EA070557|EA070558|EA070559|EA070560|EA070561|EA070562|EA070563|EA070564,[M-H]-,CID35|HCD15|HCD30|HCD45|HCD60|HCD75|HCD90|HCD15|HCD30|HCD45|HCD60|HCD75|HCD90|CID35,120.9604:242.0496:148.0771|322.0871|322.0871:120.9604:148.077|120.9604:148.0771:76.9704|120.9603:148.0771:76.9703|79.9575:76.9704:130.0665|79.9574:76.9703:130.0665|322.087|322.0868:120.9602:148.077|120.9602:148.077:76.9703|148.077:120.9602:76.9703|79.9575:130.0663:76.9704|76.9704:79.9574:130.0668|120.9603:242.0494:148.0769,322.08705;242.0495;148.077;130.0665;120.9603;79.95745;76.97035,Eawag
stpQQR928,"Metazachlor OXA|2-[2,6-dimethyl-N-(pyrazol-1-ylmethyl)anilino]-2-oxo-acetic acid",Cc1cccc(c1N(Cn2cccn2)C(=O)C(=O)O)C,273.1113,C14H15N3O3,"InChI=1S/C14H15N3O3/c1-10-5-3-6-11(2)12(10)17(13(18)14(19)20)9-16-8-4-7-15-16/h3-8H,9H2,1-2H3,(H,19,20)",CAS_RN: NA,NA,PHMHHVKFXZNTKU-UHFFFAOYSA-N,24721983,DTXSID00891455,Positive/Negative,AU206201|AU206202|AU206203|AU206204|AU206205;EA070601|EA070602|EA070603|EA070604|EA070605|EA070606|EA070607|EA070608|EA070609|EA070610|EA070611|EA070612|EA070613|EA070614,[M+H]+;[M+H]+,CID10|CID20|CID30|CID40|CID50;CID35|HCD15|HCD30|HCD45|HCD60|HCD75|HCD90|HCD15|HCD30|HCD45|HCD60|HCD75|HCD90|CID35,206.0803:134.0955:162.0901|134.0956:206.0805:135.0988|134.0955:135.0994:206.0799|134.0958:118.0644:119.0726|134.0955:118.0637:132.0797;162.0916:134.0966:230.1289|134.0965:206.0812:69.0448|134.0965:206.0812:69.0448|134.0965:69.0448:206.0811|134.0965:69.0448:105.0699|134.0966:105.07:69.0448|105.0699:69.0447:134.0965|134.0964:206.081:69.0447|134.0965:206.0812:69.0447|134.0965:69.0448:206.0811|134.0965:69.0448:105.0699|134.0964:105.0699:69.0447|105.0699:134.0965:69.0448|162.0914:134.0965:230.1287,230.1288;206.0811;162.0914;135.0991;134.0965;132.0797;119.0726;118.06405;105.0699;69.0448,Athens_Univ;Eawag,EA070652|EA070653|EA070654|EA070655|EA070656|EA070657|EA070658|EA070659|EA070660|EA070661|EA070662|EA070663,[M-H]-,HCD15|HCD30|HCD45|HCD60|HCD75|HCD90|HCD15|HCD30|HCD45|HCD60|HCD75|HCD90,67.0303:272.1041|67.0303|67.0303|67.0302|67.0303|67.0303|67.0303:272.1044|67.0303|67.0303|67.0303|67.0303|67.0303,272.10425;67.0303,Eawag
stpQQR929,"Dimethachlor|2-chloranyl-N-(2,6-dimethylphenyl)-N-(2-methoxyethyl)ethanamide",Cc1cccc(C)c1N(CCOC)C(=O)CCl,255.1021,C13H18ClNO2,"InChI=1S/C13H18ClNO2/c1-10-5-4-6-11(2)13(10)15(7-8-17-3)12(16)9-14/h4-6H,7-9H2,1-3H3",CAS_RN: 50563-36-5,39722,SCCDDNKJYDZXMM-UHFFFAOYSA-N,36319,DTXSID3058111,Positive,AU339001|AU339002|AU339003|AU339004|AU339005;SM839501;EA070701|EA070702|EA070703|EA070704|EA070705|EA070706|EA070707|EA070708|EA070709|EA070710|EA070711|EA070712|EA070713|EA070714,[M+H]+;[M+H]+;[M+H]+,CID10|CID20|CID30|CID40|CID50;HCD35;CID35|HCD15|HCD30|HCD45|HCD60|HCD75|HCD90|HCD15|HCD30|HCD45|HCD60|HCD75|HCD90|CID35,224.0837:256.11:226.0807|224.0837:226.0807:148.1109|148.1112:224.0837:226.0807|148.1113:133.0874:224.0825|148.111:133.0871:118.0643;224.0836:148.112:256.1098;224.084|224.084:256.1102|224.0839:256.1098:148.1121|224.0839:148.1122:132.0808|148.1122:224.0836:132.0808|148.1122:105.0699:132.0809|148.1122:105.0699:132.0809|224.0838:256.11:173.0152|224.0838:256.1103:148.1121|224.0838:148.1122:132.0807|148.1122:224.0839:132.0808|148.1122:105.07:132.0808|148.1121:105.0699:132.0808|224.0838,226.0807;224.0838;173.0152;148.1121;133.08725;132.0808;118.0643;105.0699,Athens_Univ;CASMI_2016;Eawag,NA,NA,NA,NA,NA,NA
stpQQR930,Propachlor|2-chloranyl-N-phenyl-N-propan-2-yl-ethanamide,CC(C)N(C(=O)CCl)c1ccccc1,211.0758,C11H14ClNO,"InChI=1S/C11H14ClNO/c1-9(2)13(11(14)8-12)10-6-4-3-5-7-10/h3-7,9H,8H2,1-2H3",CAS_RN: 1918-16-7,4931,MFOUDYKPLGXPGO-UHFFFAOYSA-N,4762,DTXSID4024274,Positive,AU362201|AU362202|AU362203|AU362204;SM839705;EA070801|EA070802|EA070803|EA070804|EA070805|EA070806|EA070807|EA070808|EA070809|EA070810|EA070811|EA070812|EA070813|EA070814,[M+H]+;[M+H]+;[M+H]+,CID10|CID20|CID30|CID40;HCD35;CID35|HCD15|HCD30|HCD45|HCD60|HCD75|HCD90|HCD15|HCD30|HCD45|HCD60|HCD75|HCD90|CID35,212.0833:170.0355:214.0802|170.0355:172.033:171.039|170.0355:172.033:152.0249|152.0249:170.0355:172.033;170.0367:212.0837:94.0651;170.037:152.0261:212.0847|212.0838:170.0372:152.025|170.0369:212.084:152.0262|170.0368:152.0261:212.0831|170.0367:94.0651:106.0651|94.0652:106.0652:170.0368|94.0651:106.0651:77.0385|212.0837:170.0367:152.0261|170.0368:212.0837:152.0262|170.0367:212.0837:152.0261|170.0367:94.0651:106.0651|94.0651:106.0651:170.0366|94.0652:106.0652:77.0386|170.0369:152.0262:212.0836,172.033;171.039;170.0367;152.0261;106.0651;94.0651;77.03855,Athens_Univ;CASMI_2016;Eawag,NA,NA,NA,NA,NA,NA
stpQQR931,"Flufenacet|N-(4-fluorophenyl)-N-isopropyl-2-[[5-(trifluoromethyl)-1,3,4-thiadiazol-2-yl]oxy]acetamide",O=C(COc1nnc(s1)C(F)(F)F)N(c2ccc(F)cc2)C(C)C,363.067,C14H13F4N3O2S,"InChI=1S/C14H13F4N3O2S/c1-8(2)21(10-5-3-9(15)4-6-10)11(22)7-23-13-20-19-12(24-13)14(16,17)18/h3-6,8H,7H2,1-2H3",CAS_RN: 142459-58-3,86429,IANUJLZYFUDJIH-UHFFFAOYSA-N,77944,DTXSID2032552,Positive,AU380001|AU380002|AU380003|AU380004|AU380005;SM839603;EA070901|EA070902|EA070903|EA070904|EA070905|EA070906|EA070907|EA070908|EA070909|EA070910|EA070911|EA070912|EA070913|EA070914,[M+H]+;[M+H]+;[M+H]+,CID10|CID20|CID30|CID40|CID50;HCD35;CID35|HCD15|HCD30|HCD45|HCD60|HCD75|HCD90|HCD15|HCD30|HCD45|HCD60|HCD75|HCD90|CID35,194.0968:364.0736:152.0496|152.0502:194.0972:124.0553|152.0499:124.0551:152.0865|152.0498:124.0551:152.0865|124.0553:152.0502:152.0866;152.0507:194.0977:124.0557;194.0975:152.0506:124.0555|194.0975:152.0506:364.0733|152.0506:194.0975:152.087|152.0507:124.0557:152.087|124.0556:152.0506:109.0447|124.0556:109.0447:152.0505|124.0556:97.0447:109.0448|194.0975:152.0506:364.0731|152.0506:194.0975:152.0871|152.0506:124.0556:152.087|124.0556:152.0505:109.0447|124.0556:109.0447:152.0504|124.0556:97.0447:109.0447|194.0975:152.0506:124.0556,194.0975;152.087;152.0506;124.0556;109.0447;97.0447,Athens_Univ;CASMI_2016;Eawag,NA,NA,NA,NA,NA,NA
stpQQR932,"3,5-Dibromo-4-hydroxybenzoic acid|3,5-bis(bromanyl)-4-oxidanyl-benzoic acid",O=C(O)c1cc(c(O)c(Br)c1)Br,293.8527,C7H4Br2O3,"InChI=1S/C7H4Br2O3/c8-4-1-3(7(11)12)2-5(9)6(4)10/h1-2,10H,(H,11,12)",CAS_RN: 3337-62-0,76857,PHWAJJWKNLWZGJ-UHFFFAOYSA-N,69309,DTXSID4041656,Negative,NA,NA,NA,NA,NA,NA,EA080451|EA080452|EA080453|EA080454|EA080455|EA080456|EA080457|EA080458|EA080459|EA080460|EA080461|EA080462|EA080463|EA080464,[M-H]-,CID35|HCD15|HCD30|HCD45|HCD60|HCD75|HCD90|HCD15|HCD30|HCD45|HCD60|HCD75|HCD90|CID35,248.8555|292.8451:248.8558|292.8452:248.8555:78.9189|248.8552:78.9187:292.845|78.9189:248.8557|78.9188:248.8562|78.9188|292.845:248.8565|292.845:248.8552:78.9188|248.8554:78.9188:292.8449|78.9188:248.8554|78.9188:248.8552:189.8272|78.9189|248.8553,292.845;248.85545;189.8272;78.9188,Eawag
stpQQR933,"4-Aminoantipyrine|4-amino-1,5-dimethyl-2-phenyl-3-pyrazolin-3-one",c(ccc1N(N(C=2C)C)C(=O)C2N)cc1,203.1059,C11H13N3O1,"InChI=1S/C11H13N3O/c1-8-10(12)11(15)14(13(8)2)9-6-4-3-5-7-9/h3-7H,12H2,1-2H3",CAS_RN: 83-07-8,2151,RLFWWDJHLFCNIJ-UHFFFAOYSA-N,2066,DTXSID8048860,Positive,SM866001;EA084501|EA084502|EA084503|EA084504|EA084505|EA084506|EA084507|EA084508|EA084509|EA084510|EA084511|EA084512|EA084513|EA084514;UF408301|UF408302|UF408303|UF408304,[M+H]+;[M+H]+;[M+H]+,HCD35;CID35|HCD15|HCD30|HCD45|HCD60|HCD75|HCD90|HCD15|HCD30|HCD45|HCD60|HCD75|HCD90|CID35;HCD55|HCD80|CID35|CID55,56.0497:204.1133:159.0917;187.087:159.0919:173.0712|204.1134:187.0866:159.0916|204.1135:56.0495:187.0867|56.0495:204.1133:94.0651|56.0495:94.0652:83.0605|56.0495:94.0652:83.0604|56.0495:94.0652:83.0604|204.1133:187.0866:159.0918|204.1134:56.0495:187.0867|56.0495:94.0651:204.113|56.0495:94.0651:83.0604|56.0495:94.0652:83.0604|56.0495:94.0652:83.0604|187.0867:159.0918:173.0711;94.0652:159.0918:83.0604|94.0651:83.0605:104.0494|187.0866:159.0917:173.0711|187.0866:159.0917:173.071,187.08665;173.0711;159.09175;104.0494;94.0652;83.0604;56.0495,CASMI_2016;Eawag;UFZ,NA,NA,NA,NA,NA,NA
stpQQR934,"Carbamazepine-10,11-epoxide|1a,10b-Dihydro-6H-dibenz(b,f)oxiren(d)azepine-6-carboxamide",NC(=O)N2c1ccccc1C4OC4c3ccccc23,252.0899,C15H12N2O2,"InChI=1S/C15H12N2O2/c16-15(18)17-11-7-3-1-5-9(11)13-14(19-13)10-6-2-4-8-12(10)17/h1-8,13-14H,(H2,16,18)",CAS_RN: 36507-30-9,2555,ZRWWEEVEIOGMMT-UHFFFAOYSA-N,2458,NA,Positive,AU203801|AU203802|AU203803|AU203804|AU203805;EA091601|EA091602|EA091603|EA091604|EA091605|EA091606|EA091607|EA091608|EA091609|EA091610|EA091611|EA091612|EA091613|EA091614,[M+H]+;[M+H]+,CID10|CID20|CID30|CID40|CID50;CID35|HCD15|HCD30|HCD45|HCD60|HCD75|HCD90|HCD15|HCD30|HCD45|HCD60|HCD75|HCD90|CID35,210.0911:253.0971:236.0705|180.08:210.0908:182.0953|180.0802:182.0958:181.0829|180.0801:181.0829:182.0953|180.0801:167.072:181.0829;236.0709:210.0916:180.0807|253.0975:236.0707:210.0915|210.0916:236.0708:180.0809|180.0809:210.0915:182.0965|180.081:182.0967:210.0916|180.0808:182.0964:167.0729|180.081:167.0732:182.0966|253.0973:236.0706:210.0913|210.0914:236.0706:180.0808|180.081:210.0914:182.0965|180.0808:182.0964:210.0914|180.0809:182.0964:167.073|180.0809:167.073:182.0964|236.0708:210.0914:180.0808,236.0707;210.0914;182.0964;181.0829;180.0808;167.073,Athens_Univ;Eawag,NA,NA,NA,NA,NA,NA
stpQQR935,Iminostilbene|11H-benzo[b][1]benzazepine,c1cc2Nc3ccccc3\C=C/c2cc1,193.0891,C14H11N1,"InChI=1S/C14H11N/c1-3-7-13-11(5-1)9-10-12-6-2-4-8-14(12)15-13/h1-10,15H",CAS_RN: 256-96-2,9212,LCGTWRLJTMHIQZ-UHFFFAOYSA-N,8857,DTXSID90871625,Positive,AU204802|AU204803|AU204804|AU204805;SM878003;EA099201|EA099202|EA099203|EA099204|EA099205|EA099206|EA099207|EA099208|EA099209|EA099210|EA099211|EA099212|EA099213|EA099214;UF413301|UF413302|UF413303|UF413304,[M+H]+;[M+H]+;[M+H]+;[M+H]+,CID20|CID30|CID40|CID50;HCD35;CID35|HCD15|HCD30|HCD45|HCD60|HCD75|HCD90|HCD15|HCD30|HCD45|HCD60|HCD75|HCD90|CID35;HCD55|HCD80|CID35|CID55,194.0957:195.0991:179.0723|194.0957:179.0711:195.0991|179.0715:194.0939:165.0683|193.0872:179.0708:152.0605;194.0965:193.0888:134.06;194.0969:193.0886:165.0696|194.0968:193.0893:179.0727|194.0967:193.0891:165.0694|194.0969:193.0894:179.0725|194.0966:193.0892:179.0731|194.0969:193.0892:179.0732|193.089:194.0968:179.0731|194.0967:193.0892|194.0967:193.0891|194.0967:193.089:165.0695|194.0967:193.0891:179.0731|194.0969:193.0892:179.0732|193.0889:194.0966:179.0732|194.0967:193.0887:179.0726;194.0972:179.0738:167.0863|194.0973:179.0738:116.05|194.0972:167.086|194.0972:179.0736:167.086,193.0891;179.0731;167.086;165.06945;152.0605;134.06;116.05,Athens_Univ;CASMI_2016;Eawag;UFZ,NA,NA,NA,NA,NA,NA
stpQQR936,N-Desmethylvenlafaxine|1-[1-(4-methoxyphenyl)-2-(methylamino)ethyl]-1-cyclohexanol,CNCC(C1=CC=C(C=C1)OC)C2(CCCCC2)O,263.1885,C16H25N1O2,"InChI=1S/C16H25NO2/c1-17-12-15(16(18)10-4-3-5-11-16)13-6-8-14(19-2)9-7-13/h6-9,15,17-18H,3-5,10-12H2,1-2H3",CAS_RN: 149289-30-5,3501942,MKAFOJAJJMUXLW-UHFFFAOYSA-N,2741972,DTXSID20881050,Positive,EA103401|EA103402|EA103403|EA103404|EA103405|EA103406|EA103407|EA103408|EA103409|EA103410|EA103411|EA103412|EA103413|EA103414;ET120001|ET120002|ET120003|ET120004|ET120005,[M+H]+;[M+H]+,"CID35|HCD15|HCD30|HCD45|HCD60|HCD75|HCD90|HCD15|HCD30|HCD45|HCD60|HCD75|HCD90|CID35;HCD15, 30, 45, 60, 70 or 90|HCD15, 30, 45, 60, 70 or 90|HCD15, 30, 45, 60, 70 or 90|HCD15, 30, 45, 60, 70 or 90|HCD15, 30, 45, 60, 70 or 90",246.1854:215.1429:121.0643|264.1961:246.1851:215.1431|215.1429:246.185:264.1958|121.0648:215.1431:147.0805|121.0647:147.0804:173.096|121.0649:147.0805:91.0543|121.0648:91.0542:147.0804|264.196:246.1852:215.143|246.1851:215.1431:264.1954|121.0648:215.143:147.0804|121.0648:147.0804:173.096|121.0648:147.0804:91.0542|121.0648:91.0542:147.0804|246.1853:215.1429:121.0649;121.0647:91.0542:95.0491|246.1852:264.1957:215.1431|215.143:246.1852:121.0647|121.0647:147.0804:215.143|121.0647:147.0804:173.096,246.1852;215.143;173.096;147.0804;121.0648;95.0491;91.0542,Eawag;Eawag_Additional_Specs,NA,NA,NA,NA,NA,NA
stpQQR937,"4-Formylaminoantipyrine|N-(1,5-dimethyl-3-oxidanylidene-2-phenyl-pyrazol-4-yl)methanamide",O=C2C(\NC=O)=C(\C)N(C)N2c1ccccc1,231.1008,C12H13N3O2,"InChI=1S/C12H13N3O2/c1-9-11(13-8-16)12(17)15(14(9)2)10-6-4-3-5-7-10/h3-8H,1-2H3,(H,13,16)",CAS_RN: 1672-58-8,72666,WSJBSKRPKADYRQ-UHFFFAOYSA-N,65525,DTXSID10168241,Positive/Negative,AU200601|AU200602|AU200603|AU200604|AU200605;EA103801|EA103802|EA103803|EA103804|EA103805|EA103806|EA103807|EA103808|EA103809|EA103810|EA103811|EA103812|EA103813|EA103814;UF411301|UF411302|UF411303|UF411304,[M+H]+;[M+H]+;[M+H]+,CID10|CID20|CID30|CID40|CID50;CID35|HCD15|HCD30|HCD45|HCD60|HCD75|HCD90|HCD15|HCD30|HCD45|HCD60|HCD75|HCD90|CID35;HCD55|HCD80|CID35|CID55,232.1076:233.111:214.0964|214.0967:204.1125:232.1076|146.0589:214.0971:187.085|130.0641:146.0586:128.0486|130.0642:128.0491:132.0798;214.0977:204.1133:187.0865|232.1085:204.1136:214.097|232.1082:214.0975:204.1131|104.0496:83.0605:214.0976|104.0495:83.0605:56.0495|83.0604:56.0495:104.0495|56.0495:83.0605:77.0387|232.1084:214.0977:204.1133|232.1083:214.0977:204.1133|83.0604:104.0495:214.0975|104.0495:83.0604:56.0495|83.0604:104.0495:56.0495|56.0495:83.0604:77.0386|214.0976:204.1133:187.0866;104.0495:83.0604:94.0652|104.0495:83.0604:77.0386|214.0976:204.1133:187.0868|214.0976:204.1133:187.0867,214.0976;204.1133;187.0866;146.05875;132.0798;130.06415;128.04885;104.0495;94.0652;83.0604;77.0386;56.0495,Athens_Univ;Eawag;UFZ,UF411351|UF411352|UF411353|UF411354,[M-H]-,HCD55|HCD80|CID35|CID55,230.0931|230.094|111.0564|111.0563,230.09355;111.05635,UFZ
stpQQR938,O-desmethylvenlafaxine|Desvenlafaxine|4-[2-(dimethylamino)-1-(1-hydroxycyclohexyl)ethyl]phenol,CN(C)CC(C1=CC=C(C=C1)O)C2(CCCCC2)O,263.1885,C16H25N1O2,"InChI=1S/C16H25NO2/c1-17(2)12-15(13-6-8-14(18)9-7-13)16(19)10-4-3-5-11-16/h6-9,15,18-19H,3-5,10-12H2,1-2H3",CAS_RN: 93413-62-8,125017,KYYIDSXMWOZKMP-UHFFFAOYSA-N,111300,DTXSID40869118,Positive/Negative,AU202101|AU202102|AU202103|AU202104|AU202105;EA105301|EA105302|EA105303|EA105304|EA105305|EA105306|EA105307|EA105308|EA105309|EA105310|EA105311|EA105312|EA105313|EA105314;ET190101|ET190102|ET190103|ET190104|ET190105;TUE00821|TUE00822|TUE00823,[M+H]+;[M+H]+;[M+H]+;[M+H]+,"CID10|CID20|CID30|CID40|CID50;CID35|HCD15|HCD30|HCD45|HCD60|HCD75|HCD90|HCD15|HCD30|HCD45|HCD60|HCD75|HCD90|CID35;HCD15, 30, 45, 60, 70 or 90|HCD15, 30, 45, 60, 70 or 90|HCD15, 30, 45, 60, 70 or 90|HCD15, 30, 45, 60, 70 or 90|HCD15, 30, 45, 60, 70 or 90;NA10.0V|NA20.0V|NA40.0V",264.196:246.1851:265.1992|246.1848:201.1266:264.1955|133.064:159.0794:145.0637|133.064:159.0795:145.0637|133.0639:145.0635:144.056;246.1856:107.0487:201.1274|264.1962:246.1859:58.065|246.1852:58.0652:264.1957|58.0652:107.0492:201.1275|58.0651:107.0492:133.0648|58.0652:107.0493:133.0649|58.0651:107.0492:133.0648|264.196:246.1852:58.0651|246.1853:264.196:58.0651|58.0652:107.0492:133.0648|58.0652:107.0492:133.0649|58.0652:107.0492:133.0648|58.0651:107.0492:133.0648|246.1855:201.1273:107.0483;58.0655:107.0491:133.0647|58.0655:107.0491:133.0647|58.0655:107.0491:105.0699|264.1956:246.1852:58.0654|58.0655:246.1852:264.1957;58.0653:264.1962:246.1856|58.0652:107.0491:133.0645|58.0653:107.0491:133.0646,246.1852;201.12735;159.07945;145.0637;144.056;133.06475;107.0492;105.0699;58.0652,Athens_Univ;Eawag;Eawag_Additional_Specs;Env_Anal_Chem_U_Tuebingen,TUE00825|TUE00826|TUE00827,[M-H]-,NA10.0V|NA20.0V|NA40.0V,262.1814:186.1048:119.05|262.1812:186.1048:119.0501|119.0501:185.0971:186.1049,262.1813;186.1048;185.0971;119.0501,Env_Anal_Chem_U_Tuebingen
stpQQR939,"Dimethachlor ESA|2-[(2,6-dimethylphenyl)(2-methoxyethyl)amino]-2-oxoethanesulfonic acid",CC1=C(N(C(CS(O)(=O)=O)=O)CCOC)C(C)=CC=C1,301.0984,C13H19NO5S,"InChI=1S/C13H19NO5S/c1-10-5-4-6-11(2)13(10)14(7-8-19-3)12(15)9-20(16,17)18/h4-6H,7-9H2,1-3H3,(H,16,17,18)",CAS_RN: NA,NA,RVSCDWJKJDBFRS-UHFFFAOYSA-N,28290251,DTXSID20891457,Positive/Negative,AU204301|AU204302|AU204303|AU204304|AU204305;EA253501|EA253502|EA253503|EA253504|EA253505|EA253506|EA253507|EA253508|EA253509|EA253510|EA253511|EA253512|EA253513|EA253514,[M+H]+;[M+H]+,CID10|CID20|CID30|CID40|CID50;CID35|HCD15|HCD30|HCD45|HCD60|HCD75|HCD90|HCD15|HCD30|HCD45|HCD60|HCD75|HCD90|CID35,270.0797:302.1055:271.0818|270.079:271.0815:174.0907|174.0902:270.0787:132.0794|132.0799:174.0903:146.0956|132.08:146.0955:174.0905;270.0795|270.0797:302.106|270.0793:147.1043:174.0914|270.0797:174.0916:147.1044|174.0915:132.0809:147.1043|132.0808:174.0915:146.0966|132.0808:146.0966:174.0914|270.0795:302.1057|270.0796:147.1044:302.1059|270.0794:174.0914:147.1043|174.0913:132.0808:147.1044|132.0808:174.0914:146.0965|132.0808:146.0965:174.0914|270.0795,271.08165;270.0795;174.0914;147.10435;146.0965;132.0808,Athens_Univ;Eawag,AU204351|AU204352|AU204353;EA253551|EA253552|EA253553|EA253554|EA253555|EA253556|EA253557|EA253558|EA253559|EA253560|EA253561|EA253562|EA253563|EA253564,[M-H]-;[M-H]-,CID10|CID20|CID30;CID35|HCD15|HCD30|HCD45|HCD60|HCD75|HCD90|HCD15|HCD30|HCD45|HCD60|HCD75|HCD90|CID35,300.0904:301.0938|300.0899:120.9602|120.9602;120.96:146.0974:268.0647|300.091|300.0908:120.96:79.9571|79.9573:300.091:120.96|79.9573:120.96:76.9702|79.9573:76.9702:120.9602|79.9573:76.9703:121.0662|300.0909|300.091:120.96:79.9572|79.9573:300.0906:120.9599|79.9573:120.96:76.9701|79.9573:76.9702:120.9599|79.9573:76.9701|120.96:146.0973:178.0177,300.09085;268.0647;178.0177;146.09735;121.0662;120.96;79.9573;76.9702,Athens_Univ;Eawag