NORMAN_ID,NAME,SMILES,NEUTRAL_EXACT_MASS,FORMULA,StdInChI,CAS_RN,PUBCHEM_CID,InChIKey,CHEMSPIDER_ID,DTXSID,Preferable Ionization,MB_Records Positive Ionization,Adduct Positive Ionization,Ionisation type and collision energy Positive Ionization,Fragments Positive Ionization,Simplified_fragments_Positive,Institute Positive Ionization,MB_Records Negative Ionization,Adduct Negative Ionization,Ionisation type and collision energy Negative Ionization,Fragments Negative Ionization,Simplified_fragments_Negative,Institute Negative Ionization
stpQQR841,"Simazine|6-chloranyl-N2,N4-diethyl-1,3,5-triazine-2,4-diamine",c1(nc(nc(n1)Cl)NCC)NCC,201.0776,C7H12ClN5,"InChI=1S/C7H12ClN5/c1-3-9-6-11-5(8)12-7(13-6)10-4-2/h3-4H2,1-2H3,(H2,9,10,11,12,13)",CAS_RN: 122-34-9,5216,ODCWYMIRDDJXKW-UHFFFAOYSA-N,5027,DTXSID4021268,Positive,AU314101|AU314102|AU314103;SM841901;EA026201|EA026202|EA026203|EA026204|EA026205|EA026206|EA026207|EA026208|EA026209|EA026210|EA026211|EA026212|EA026213|EA026214;UF404101|UF404102|UF404103|UF404104,[M+H]+;[M+H]+;[M+H]+;[M+H]+,CID10|CID20|CID30;HCD35;CID35|HCD15|HCD30|HCD45|HCD60|HCD75|HCD90|HCD15|HCD30|HCD45|HCD60|HCD75|HCD90|CID35;HCD55|HCD80|CID35|CID55,202.0848:204.082:203.0866|202.0848:132.0315:124.0859|132.0312:124.0865:202.0838;146.0228:202.0854:79.0058;124.087:202.0856:132.0325|202.0855:124.0874|202.0857:124.087:132.0324|202.0856:132.0324:124.087|132.0324:202.0853:124.087|104.001:68.0243:132.0324|68.0243:104.001:96.0556|202.0855:71.0602|202.0854:124.0869:132.0323|202.0854:132.0323:124.087|202.0855:132.0324:124.087|104.0011:68.0243:96.0557|104.001:68.0243:96.0556|202.0854:124.087:132.0323;202.0852:132.0322:124.0868|104.0009:96.0555:132.0322|202.0852:124.0868:132.0322|124.0868:132.0322:174.0539,174.0539;146.0228;132.0323;124.087;104.001;96.0556;79.0058;71.0602;68.0243,Athens_Univ;CASMI_2016;Eawag;UFZ,NA,NA,NA,NA,NA,NA
stpQQR842,Metolachlor OXA| 2-(2-ethyl-N-(2-methoxy-1-methyl-ethyl)-6-methyl-anilino)-2-keto-acetic acid,CC1=CC=CC(CC)=C1N(C(C)COC)C(C(O)=O)=O,279.1471,C15H21N1O4,"InChI=1S/C15H21NO4/c1-5-12-8-6-7-10(2)13(12)16(11(3)9-20-4)14(17)15(18)19/h6-8,11H,5,9H2,1-4H3,(H,18,19)",CAS_RN: 152019-73-3,15842092,LNOOSYCKMKZOJB-UHFFFAOYSA-N,21170688,DTXSID6037568,Positive/Negative,AU205801|AU205802|AU205803|AU205804|AU205805;SM868501;EA026501|EA026502|EA026503|EA026504|EA026505|EA026506|EA026507|EA026508|EA026509|EA026510|EA026511|EA026512|EA026513|EA026514,[M+H]+;[M+H]+;[M+H]+,CID10|CID20|CID30|CID40|CID50;HCD35;CID35|HCD15|HCD30|HCD45|HCD60|HCD75|HCD90|HCD15|HCD30|HCD45|HCD60|HCD75|HCD90|CID35,248.1279:280.1541:249.131|248.1279:249.131:146.095|248.1276:146.096:148.1115|131.0719:146.0949:144.0792|130.064:131.0717:144.0801;248.1282:146.0964:73.0649;248.128:234.149:208.0974|248.128:280.1543:234.1489|248.1279:73.0648:162.0913|248.1279:146.0964:148.1121|146.0964:148.112:248.1279|131.0729:146.0964:144.0808|131.073:91.0542:144.0808|248.128:280.1543:234.1487|248.1279:73.0648:162.0913|248.1279:146.0964:148.112|146.0964:148.112:248.128|131.0729:146.0964:144.0807|131.0729:91.0541:144.0807|248.1279:234.1488:208.097,249.131;248.1279;234.14885;208.0972;162.0913;148.112;146.0964;144.0807;131.0729;130.064;91.05415;73.0648,Athens_Univ;CASMI_2016;Eawag,SM868551;EA026551|EA026552|EA026553|EA026554|EA026555|EA026556|EA026557|EA026558|EA026559|EA026560|EA026561|EA026562|EA026563|EA026564;UF405351|UF405352|UF405353|UF405354,[M-H]-;[M-H]-;[M-H]-,HCD35;CID35|HCD15|HCD30|HCD45|HCD60|HCD75|HCD90|HCD15|HCD30|HCD45|HCD60|HCD75|HCD90|CID35;HCD55|HCD80|CID35|CID55,206.1551:158.0976:174.1289;206.1556:174.129|206.1555:278.1402:174.1291|206.1555:174.1291:158.0979|158.0979:174.129:206.1551|158.0981:144.0824:160.1134|144.0821:158.098:143.0746|144.0822:158.0983:143.0744|206.1554:278.1399:174.129|206.1555:174.1291:158.0979|158.0978:174.1292:206.1553|158.0977:144.0819:160.1134|144.0819:158.0977:143.0744|144.0819:158.0978:143.0743|206.1556:174.129;206.1552:199.1319:174.1286|206.155:199.1327:174.1288|206.1551|206.155:199.1325,278.14005;206.1553;199.1325;174.129;160.1134;158.0979;144.082;143.0744,CASMI_2016;Eawag;UFZ
stpQQR843,"Bromacil|Bromazil|5-bromanyl-3-butan-2-yl-6-methyl-1H-pyrimidine-2,4-dione",O=C1C(\Br)=C(/NC(=O)N1C(CC)C)C,260.0155,C9H13BrN2O2,"InChI=1S/C9H13BrN2O2/c1-4-5(2)12-8(13)7(10)6(3)11-9(12)14/h5H,4H2,1-3H3,(H,11,14)",CAS_RN: 314-40-9,9411,CTSLUCNDVMMDHG-UHFFFAOYSA-N,9040,DTXSID4022020,Positive/Negative,EA026601|EA026602|EA026603|EA026604|EA026605|EA026606|EA026607|EA026608|EA026609|EA026610|EA026611|EA026612|EA026613|EA026614,[M+H]+,CID35|HCD15|HCD30|HCD45|HCD60|HCD75|HCD90|HCD15|HCD30|HCD45|HCD60|HCD75|HCD90|CID35,204.9611|204.961:261.0235:206.9557|204.9608:261.0232:187.9334|204.9608:187.9343:161.955|204.9607:187.9342:161.9549|204.9608:187.9343:161.955|131.9444:187.9344:161.955|204.9609:261.0234|204.9608:261.0232:161.9552|204.9609:187.9342:161.955|204.9609:187.9343:161.955|204.9607:187.9342:161.9549|131.9444:187.9342:161.9549|204.9608:206.9561,206.9559;204.9608;187.9342;161.955;131.9444,Eawag,EA026651|EA026652|EA026653|EA026654|EA026655|EA026656|EA026657|EA026658|EA026659|EA026660|EA026661|EA026662|EA026663|EA026664,[M-H]-,CID35|HCD15|HCD30|HCD45|HCD60|HCD75|HCD90|HCD15|HCD30|HCD45|HCD60|HCD75|HCD90|CID35,202.9466:78.9189:159.9407|259.0089|259.0089:202.9462:78.9188|202.9463:259.0087:78.9189|78.9189:202.9462:259.0088|78.9189:202.9459|78.9188|259.0087|259.0089:202.9462:78.9188|202.9462:259.0088:78.9189|78.9189:202.9461:259.008|78.9189:202.9458|78.9189|202.9463:78.9189:159.9403,259.0088;202.9462;159.9405;78.9189,Eawag
stpQQR844,"2,4-D| 2-(2,4-dichlorophenoxy)acetic acid",ClC1=C(OCC(O)=O)C=CC(Cl)=C1,219.9694,C8H6Cl2O3,"InChI=1S/C8H6Cl2O3/c9-5-1-2-7(6(10)3-5)13-4-8(11)12/h1-3H,4H2,(H,11,12)",CAS_RN: 94-75-7,1486,OVSKIKFHRZPJSS-UHFFFAOYSA-N,1441,DTXSID0020442,Negative,NA,NA,NA,NA,NA,NA,SM837851;EA026751|EA026752|EA026753|EA026754|EA026755|EA026756|EA026757|EA026758|EA026759|EA026760|EA026761|EA026762|EA026763|EA026764,[M-H]-;[M-H]-,HCD35;CID35|HCD15|HCD30|HCD45|HCD60|HCD75|HCD90|HCD15|HCD30|HCD45|HCD60|HCD75|HCD90|CID35,160.9566:124.9795:218.9621;160.9569:174.9725|160.9569:218.9622:174.973|160.9568|160.9569:124.9798|160.9568:124.98:89.0032|160.9568:124.9799:89.0034|160.9567:124.9799:89.0033|160.9568:218.9621:174.9721|160.9569:218.962|160.9568:124.98|160.9568:124.98|160.9567:124.9799:89.0032|160.9566:124.9798:89.0032|160.9569:174.9721,218.9621;174.9723;160.9568;124.9799;89.0032,CASMI_2016;Eawag
stpQQR845,Metolachlor|2-chloranyl-N-(2-ethyl-6-methyl-phenyl)-N-(1-methoxypropan-2-yl)ethanamide,CCC1=CC=CC(=C1N(C(C)COC)C(=O)CCl)C,283.1334,C15H22ClNO2,"InChI=1S/C15H22ClNO2/c1-5-13-8-6-7-11(2)15(13)17(14(18)9-16)12(3)10-19-4/h6-8,12H,5,9-10H2,1-4H3",CAS_RN: 51218-45-2,4169,WVQBLGZPHOPPFO-UHFFFAOYSA-N,4025,DTXSID4022448,Positive,AU355601|AU355602|AU355603|AU355604|AU355605;SM841801;EA026801|EA026802|EA026803|EA026804|EA026805|EA026806|EA026807|EA026808|EA026809|EA026810|EA026811|EA026812|EA026813|EA026814;UF404001|UF404002|UF404003|UF404004,[M+H]+;[M+H]+;[M+H]+;[M+H]+,CID10|CID20|CID30|CID40|CID50;HCD35;CID35|HCD15|HCD30|HCD45|HCD60|HCD75|HCD90|HCD15|HCD30|HCD45|HCD60|HCD75|HCD90|CID35;HCD55|HCD80|CID35|CID55,284.1415:252.1151:254.1122|252.1151:254.1122:253.1181|176.1428:252.1148:254.112|176.1426:134.0954:133.0875|134.0953:146.0953:176.1424;252.115:176.1434:284.1413;252.1154:212.0846|284.1415:252.1152:176.1434|252.115:284.1405:176.1433|252.115:176.1435:212.0838|176.1436:252.1149:134.0965|176.1434:134.0964:133.0886|134.0965:133.0887:91.0543|284.1412:252.115|252.1151:284.1413:176.1435|252.115:176.1434:212.0837|176.1434:252.1148:134.0964|176.1434:134.0964:133.0886|134.0964:91.0542:133.0886|252.115;176.1433:252.1149:134.0964|134.0964:176.1433:133.0886|252.1148:212.0837|252.1148,254.1122;253.1181;252.115;212.08375;176.1434;146.0953;134.0964;133.0886;91.05425,Athens_Univ;CASMI_2016;Eawag;UFZ,NA,NA,NA,NA,NA,NA
stpQQR846,"Metazachlor|2-chloranyl-N-(2,6-dimethylphenyl)-N-(pyrazol-1-ylmethyl)ethanamide",N(c1c(cccc1C)C)(Cn1cccn1)C(CCl)=O,277.0976,C14H16ClN3O,"InChI=1S/C14H16ClN3O/c1-11-5-3-6-12(2)14(11)18(13(19)9-15)10-17-8-4-7-16-17/h3-8H,9-10H2,1-2H3",CAS_RN: 67129-08-2,49384,STEPQTYSZVCJPV-UHFFFAOYSA-N,44885,DTXSID4058156,Positive,AU353901|AU353902|AU353903|AU353904|AU353905;SM841601;EA026901|EA026902|EA026903|EA026904|EA026905|EA026906|EA026907|EA026908|EA026909|EA026910|EA026911|EA026912|EA026913|EA026914;UF403601|UF403602|UF403603|UF403604;UA003101,[M+H]+;[M+H]+;[M+H]+;[M+H]+;[M+H]+,CID10|CID20|CID30|CID40|CID50;HCD35;CID35|HCD15|HCD30|HCD45|HCD60|HCD75|HCD90|HCD15|HCD30|HCD45|HCD60|HCD75|HCD90|CID35;HCD55|HCD80|CID35|CID55;CID35,210.0676:212.0644:278.105|134.0956:210.0676:135.0989|134.0957:135.0991:210.0676|134.0959:135.0994:132.0801|134.0958:135.0992:132.0802;134.0964:210.068:278.1055;210.0686:134.0966:76.9785|210.0683:134.0966:278.1055|134.0965:210.0681|134.0966:210.068:76.979|134.0966:105.07:76.979|134.0966:105.07:76.979|134.0966:105.07:79.0543|210.0682:134.0966:278.1054|134.0965:210.0681|134.0966:210.0681:76.9788|134.0966:105.07:76.9789|134.0965:105.0699:76.9789|134.0965:105.0699:79.0543|210.0681:134.0964;134.0963:76.9788|134.0964:76.9789|210.068:134.0964|210.068:134.0964;210.0681:134.0965,212.0644;210.0681;135.09915;134.0965;132.08015;105.07;79.0543;76.9789,Athens_Univ;CASMI_2016;Eawag;UFZ;UFZ_Additional_Specs,NA,NA,NA,NA,NA,NA
stpQQR847,"Dichlorprop|2-(2,4-dichlorophenoxy)propanoic acid",CC(OC1=C(Cl)C=C(Cl)C=C1)C(O)=O,233.9845,C9H8O3Cl2,"InChI=1S/C9H8Cl2O3/c1-5(9(12)13)14-8-3-2-6(10)4-7(8)11/h2-5H,1H3,(H,12,13)",CAS_RN: 120-36-5,8427,MZHCENGPTKEIGP-UHFFFAOYSA-N,8120,DTXSID0020440,Negative,NA,NA,NA,NA,NA,NA,SM839351;EA027051|EA027052|EA027053|EA027054|EA027055|EA027056|EA027057|EA027058|EA027059|EA027060|EA027061|EA027062|EA027063|EA027064,[M-H]-;[M-H]-,HCD35;CID35|HCD15|HCD30|HCD45|HCD60|HCD75|HCD90|HCD15|HCD30|HCD45|HCD60|HCD75|HCD90|CID35,160.9566:124.9795:232.9776;160.9569:188.9882|160.9566:232.9776|160.9567|160.9567:124.9794|160.9567:124.9801:89.0033|160.9566:124.9799:89.0033|160.9565:124.9798:89.0033|160.9566:232.9775|160.9566|160.9567:124.9799|160.9565:124.9798|160.9565:124.9799:89.0033|160.9564:124.98:89.0034|160.9568:188.9878,232.9776;188.988;160.9566;124.9799;89.0033,CASMI_2016;Eawag
stpQQR848,"Chlortoluron|Chlorotoluron|3-(3-chloranyl-4-methyl-phenyl)-1,1-dimethyl-urea",c1(c(ccc(c1)NC(N(C)C)=O)C)Cl,212.0711,C10H13ClN2O,"InChI=1S/C10H13ClN2O/c1-7-4-5-8(6-9(7)11)12-10(14)13(2)3/h4-6H,1-3H3,(H,12,14)",CAS_RN: 15545-48-9,27375,JXCGFZXSOMJFOA-UHFFFAOYSA-N,25472,DTXSID8052853,Positive,SM838201;EA027301|EA027302|EA027303|EA027304|EA027305|EA027306|EA027307|EA027308|EA027309|EA027310|EA027311|EA027312|EA027313|EA027314;UF400701|UF400702|UF400703|UF400704,[M+H]+;[M+H]+;[M+H]+,HCD35;CID35|HCD15|HCD30|HCD45|HCD60|HCD75|HCD90|HCD15|HCD30|HCD45|HCD60|HCD75|HCD90|CID35;HCD55|HCD80|CID35|CID55,72.0444:213.0789:140.0261;72.0444:168.0213|213.0791:72.0443|213.0793:72.0445:168.0209|72.0444:213.0783:168.021|72.0445:140.0263:168.0211|72.0444:140.0261:125.0151|72.0444:140.0261:125.0152|213.0791:72.0443|213.0791:72.0444:168.0211|72.0444:213.0788:168.0211|72.0444:140.0261:168.021|72.0445:140.0262:125.0153|72.0444:140.0262:125.0152|72.0444:213.0786:168.0212;72.0442:140.0261:168.0209|72.0442:140.0261:125.0152|72.0442:213.0786:168.0209|72.0442:168.021,168.021;140.0261;125.0152;72.0444,CASMI_2016;Eawag;UFZ,NA,NA,NA,NA,NA,NA
stpQQR849,"Alachlor|2-chloranyl-N-(2,6-diethylphenyl)-N-(methoxymethyl)ethanamide",CCC1=CC=CC(CC)=C1N(COC)C(=O)CCl,269.1177,C14H20ClNO2,"InChI=1S/C14H20ClNO2/c1-4-11-7-6-8-12(5-2)14(11)16(10-18-3)13(17)9-15/h6-8H,4-5,9-10H2,1-3H3",CAS_RN: 15972-60-8,2078,XCSGPAVHZFQHGE-UHFFFAOYSA-N,1994,DTXSID1022265,Positive,AU322501|AU322502|AU322503|AU322504|AU322505;EA027401|EA027402|EA027403|EA027404|EA027405|EA027406|EA027407|EA027408|EA027409|EA027410|EA027411|EA027412|EA027413|EA027414,[M+H]+;[M+H]+,CID10|CID20|CID30|CID40|CID50;CID35|HCD15|HCD30|HCD45|HCD60|HCD75|HCD90|HCD15|HCD30|HCD45|HCD60|HCD75|HCD90|CID35,238.0987:240.0954:270.125|162.1269:238.0987:240.0954|162.1271:147.1034:163.1301|147.1034:132.08:162.1269|132.0798:147.1031:117.0567;238.0995:224.0839:162.1278|238.0992:270.1254:162.1275|238.0992:162.1276:224.0835|162.1278:238.0993:163.1117|162.1276:147.1042:163.1115|147.1043:162.1278:132.0809|147.1042:132.0807:162.1277|238.0994:270.1256:162.1278|238.0993:162.1278:224.0836|162.1278:238.0992:163.1118|162.1278:147.1042:163.1117|147.1042:162.1277:132.0807|132.0807:147.1042:146.0964|238.0994:162.1276:208.0886,240.0954;238.09925;224.0836;208.0886;163.1301;163.1117;162.1277;147.1042;146.0964;132.0807;117.0567,Athens_Univ;Eawag,NA,NA,NA,NA,NA,NA
stpQQR850,"Dicamba|3,6-bis(chloranyl)-2-methoxy-benzoic acid",c1(c(c(ccc1Cl)Cl)OC)C(O)=O,219.9699,C8H6Cl2O3,"InChI=1S/C8H6Cl2O3/c1-13-7-5(10)3-2-4(9)6(7)8(11)12/h2-3H,1H3,(H,11,12)",CAS_RN: 1918-00-9,3030,IWEDIXLBFLAXBO-UHFFFAOYSA-N,2922,DTXSID4024018,Positive/Negative,EA027501|EA027502|EA027503|EA027504|EA027508|EA027509,[M+H]+,CID35|HCD15|HCD30|HCD45|HCD15|HCD30,202.9659|202.9652|202.9667|202.9658|202.9661|202.9657,202.96585,Eawag,EA027551|EA027555|EA027558|EA027561|EA027564,[M-H]-,CID35|HCD60|HCD15|HCD60|CID35,174.9723:150.9479|154.9468|174.9725|154.9461|174.9723:150.9468,174.9723;154.94645;150.94735,Eawag
stpQQR851,Ciprofloxacin|1-cyclopropyl-6-fluoro-4-keto-7-piperazin-4-ium-1-yl-quinoline-3-carboxylate,C(C1)C1N(C=C(C-2=O)C(=O)O)-c(cc(c3F)N(CCN4)CC4)c2c3,331.1332,C17H18F1N3O3,"InChI=1S/C17H18FN3O3/c18-13-7-11-14(8-15(13)20-5-3-19-4-6-20)21(10-1-2-10)9-12(16(11)22)17(23)24/h7-10,19H,1-6H2,(H,23,24)",CAS_RN: 85721-33-1,2764,MYSWGUAQZAJSOK-UHFFFAOYSA-N,2662,DTXSID8022824,Positive,AU102603;EA027601|EA027602|EA027603|EA027604|EA027605|EA027606|EA027607|EA027608|EA027609|EA027610|EA027611|EA027612|EA027613|EA027614,[M+H]+;[M+H]+,CID22.2-33.4;CID35|HCD15|HCD30|HCD45|HCD60|HCD75|HCD90|HCD15|HCD30|HCD45|HCD60|HCD75|HCD90|CID35,332.1449:333.1474:231.0582;314.13:288.151:332.1409|332.1405|332.1411:314.1304:288.1511|314.1303:245.109:332.1407|231.0566:314.1299:245.1087|231.0567:203.0618:189.046|231.0567:203.0617:148.0558|332.1403:314.1293:288.1509|332.1406:314.1302:288.1509|314.1299:245.1088:332.1408|231.0567:314.1302:245.1086|231.0566:203.0618:189.0461|231.0567:203.0617:148.0558|314.1301:288.1509:332.1409,314.1301;288.1509;245.10875;231.0567;203.06175;189.04605;148.0558,Athens_Univ;Eawag,NA,NA,NA,NA,NA,NA
stpQQR852,Atrazine-desethyl-2-hydroxy|2-amino-6-(isopropylamino)-1H-s-triazin-4-one|Prometon-Hydroxy-Desisopropyl,n(c(nc1NC(C)C)O)c(n1)N,169.0964,C6H11N5O,"InChI=1S/C6H11N5O/c1-3(2)8-5-9-4(7)10-6(12)11-5/h3H,1-2H3,(H4,7,8,9,10,11,12)",CAS_RN: 19988-24-0,107740,GCKLGRUZDXSATG-UHFFFAOYSA-N,96906,DTXSID80173802,Positive/Negative,AU202302|AU202303|AU202304;EA027701|EA027702|EA027703|EA027704|EA027705|EA027706|EA027707|EA027708|EA027709|EA027710|EA027711|EA027712|EA027713|EA027714,[M+H]+;[M+H]+,CID20|CID30|CID40;CID35|HCD15|HCD30|HCD45|HCD60|HCD75|HCD90|HCD15|HCD30|HCD45|HCD60|HCD75|HCD90|CID35,128.0561:170.1032:129.0584|128.056:129.0587:170.103|128.0564;128.0567:86.035:85.0506|170.1037:86.0352|170.1037:128.0568:86.0351|170.1037:128.0568:86.035|128.0567:86.035:170.1036|128.0568:86.035:85.051|86.0349:128.0567:85.0509|170.1036:128.0566|170.1037:128.0568:86.035|170.1037:128.0567:86.035|128.0568:86.035:170.1038|128.0567:86.0349:85.0509|86.0349:128.0567:85.0509|128.0567:86.0349:85.0509,129.05855;128.0567;86.035;85.0509,Athens_Univ;Eawag,AU202351;EA027751|EA027752|EA027753|EA027754|EA027755|EA027756|EA027758|EA027759|EA027760|EA027761|EA027762,[M-H]-;[M-H]-,CID10;CID35|HCD15|HCD30|HCD45|HCD60|HCD75|HCD15|HCD30|HCD45|HCD60|HCD75,168.0866:125.0824;125.0836:126.0423:83.0615|168.0891:125.0834|168.0894:125.0836|168.089:125.0833:83.0614|83.0615:125.0835:126.0416|83.0615|168.0889:125.0836|168.089:125.0836:83.0615|168.0891:125.0835:83.0615|83.0615:125.0836:168.0884|83.0615:83.0365,168.089;126.04195;125.08355;83.0615;83.0365,Athens_Univ;Eawag
stpQQR853,Atrazine-2-hydroxy|2-Hydroxyatrazine|2-(ethylamino)-6-(isopropylamino)-1H-s-triazin-4-one,c1(nc(nc(n1)O)NCC)NC(C)C,197.1277,C8H15N5O,"InChI=1S/C8H15N5O/c1-4-9-6-11-7(10-5(2)3)13-8(14)12-6/h5H,4H2,1-3H3,(H3,9,10,11,12,13,14)",CAS_RN: 2163-68-0,16553,NFMIMWNQWAWNDW-UHFFFAOYSA-N,15693,DTXSID6037807,Positive/Negative,SM844101;EA027901|EA027902|EA027903|EA027904|EA027905|EA027906|EA027907|EA027908|EA027909|EA027910|EA027911|EA027912|EA027913|EA027914,[M+H]+;[M+H]+,HCD35;CID35|HCD15|HCD30|HCD45|HCD60|HCD75|HCD90|HCD15|HCD30|HCD45|HCD60|HCD75|HCD90|CID35,198.1349:156.088:86.0349;156.0881:114.0663:128.082|198.1349|198.135:156.0882:114.0662|198.1352:156.0882:114.0663|156.0881:114.0663:198.1353|156.0882:114.0663:86.035|69.0084:86.035:114.0663|198.135:156.0882|198.1351:156.0882:114.0663|198.1351:156.0881:114.0663|156.088:114.0663:198.1351|156.0881:114.0663:86.035|69.0084:86.035:114.0663|156.0881:114.0663:128.082,156.0881;128.082;114.0663;86.035;69.0084,CASMI_2016;Eawag,SM844151;EA027951|EA027952|EA027953|EA027954|EA027955|EA027956|EA027957|EA027958|EA027959|EA027960|EA027963,[M-H]-;[M-H]-,HCD35;CID35|HCD15|HCD30|HCD45|HCD60|HCD75|HCD90|HCD15|HCD30|HCD45|HCD90,196.1203:125.0828:165.0976;154.0736:196.1206:125.0835|196.1206|196.1206:154.0736:83.0613|196.1206:83.0614:154.0736|83.0616:154.0733:69.0459|83.0615:69.0457|83.0614:69.0457|196.1203|196.1204:154.0732:125.0835|196.1205:83.0615:154.0733|83.0614,196.12055;165.0976;154.07345;125.0835;83.0614;69.0457,CASMI_2016;Eawag
stpQQR854,"5-Chloro-2-methyl-4-isothiazolin-3-one (CMI)|3(2H)-Isothiazolone, 5-chloro-2-methyl-|5-chloranyl-2-methyl-1,2-thiazol-3-one",c1(n(sc(c1)Cl)C)=O,148.9702,C4H4ClNOS,"InChI=1S/C4H4ClNOS/c1-6-4(7)2-3(5)8-6/h2H,1H3",CAS_RN: 26172-55-4,33344,DHNRXBZYEKSXIM-UHFFFAOYSA-N,30800,DTXSID9034286,Positive,AU214101|AU214102|AU214103|AU214104|AU214105;SM881901;EA028001|EA028002|EA028003|EA028004|EA028005|EA028006|EA028007|EA028008|EA028009|EA028010|EA028011|EA028012|EA028013|EA028014,[M+H]+;[M+H]+;[M+H]+,CID10|CID20|CID30|CID40|CID50;HCD35;CID35|HCD15|HCD30|HCD45|HCD60|HCD75|HCD90|HCD15|HCD30|HCD45|HCD60|HCD75|HCD90|CID35,149.9784:151.9754:150.9809|149.9782:151.9752:134.9542|149.9779:134.9544:151.975|134.9548:136.9507:149.9781|134.955;149.9775:115.0087:118.9353;120.9511:149.977:106.9717|149.9775|149.9777|149.9777:115.0088:118.9355|149.9776:115.0088:118.9355|149.9776:115.0087:134.9541|149.9776:134.9541:115.0088|149.9775:134.9537|149.9777|149.9777:115.0088:118.9354|149.9777:115.0088:118.9354|149.9776:115.0087:134.9541|149.9776:134.9541:115.0087|120.951:132.9508:106.9717,136.9507;134.9541;132.9508;120.95105;118.9354;115.0088;106.9717,Athens_Univ;CASMI_2016;Eawag,NA,NA,NA,NA,NA,NA
stpQQR855,"Irgarol-descyclopropyl|2-N-tert-butyl-6-methylsulfanyl-1,3,5-triazine-2,4-diamine",S(C)-c(nc(n1)N)nc1NC(C)(C)C,213.1048,C8H15N5S,"InChI=1S/C8H15N5S/c1-8(2,3)13-6-10-5(9)11-7(12-6)14-4/h1-4H3,(H3,9,10,11,12,13)",CAS_RN: NA,13019211,MWWBDLRPMWTLRX-UHFFFAOYSA-N,13907085,DTXSID10891446,Positive,AU204601|AU204602|AU204603|AU204604|AU204605;EA028301|EA028302|EA028303|EA028304|EA028305|EA028306|EA028307|EA028308|EA028309|EA028310|EA028311|EA028312|EA028313|EA028314,[M+H]+;[M+H]+,CID10|CID20|CID30|CID40|CID50;CID35|HCD15|HCD30|HCD45|HCD60|HCD75|HCD90|HCD15|HCD30|HCD45|HCD60|HCD75|HCD90|CID35,214.1124:158.0492:215.1146|158.0492:214.1124:159.0508|158.0486:159.0508:160.0446|158.0486:116.0272:159.0511|158.0483:116.0269:143.0254;158.0497:143.0258|214.1124|214.1121:158.0496|158.0497:214.1121:85.0508|158.0498:85.0509:116.0277|158.0495:85.0509:68.0244|68.0243:158.0497:85.0509|214.1121:158.0496|214.1121:158.0495|158.0496:214.1121:85.051|158.0497:85.0509:116.0277|158.0497:85.051:68.0244|158.0496:68.0244:85.051|158.0497:143.0257,160.0446;159.0508;158.0496;143.0257;116.02745;85.0509;68.0244,Athens_Univ;Eawag,NA,NA,NA,NA,NA,NA