NORMAN_ID,NAME,SMILES,NEUTRAL_EXACT_MASS,FORMULA,StdInChI,CAS_RN,PUBCHEM_CID,InChIKey,CHEMSPIDER_ID,DTXSID,Preferable Ionization,MB_Records Positive Ionization,Adduct Positive Ionization,Ionisation type and collision energy Positive Ionization,Fragments Positive Ionization,Simplified_fragments_Positive,Institute Positive Ionization,MB_Records Negative Ionization,Adduct Negative Ionization,Ionisation type and collision energy Negative Ionization,Fragments Negative Ionization,Simplified_fragments_Negative,Institute Negative Ionization
stpQQR965,Atenolol-desisopropyl|4-(3-Amino-2-hydroxypropoxy)phenylacetamide,c1cc(ccc1CC(=O)N)OCC(CN)O,224.1161,C11H16N2O3,"InChI=1S/C11H16N2O3/c12-6-9(14)7-16-10-3-1-8(2-4-10)5-11(13)15/h1-4,9,14H,5-7,12H2,(H2,13,15)",CAS_RN: 81346-71-6,14211540,UWMXVJVTKRSOPW-UHFFFAOYSA-N,21896503,DTXSID10557479,Positive,AU202401|AU202402|AU202403|AU202404|AU202405;EA267001|EA267002|EA267003|EA267004|EA267005|EA267006|EA267007|EA267008|EA267009|EA267010|EA267011|EA267012|EA267013|EA267014,[M+H]+;[M+H]+,CID10|CID20|CID30|CID40|CID50;CID35|HCD15|HCD30|HCD45|HCD60|HCD75|HCD90|HCD15|HCD30|HCD45|HCD60|HCD75|HCD90|CID35,225.1228:226.1263:190.0854|190.0854:145.0636:178.0852|145.0636:133.0637:178.085|145.0639:133.0636:115.0548|115.0539:145.0632:133.0645;208.0971:190.0865:74.0601|225.1236:190.0864:208.0967|225.1234:190.0863:208.0968|145.0648:190.0862:74.0601|145.0649:74.0601:133.0649|145.0647:133.0648:74.06|145.0648:133.0648:107.0491|225.1236:208.0969:190.0864|225.1237:190.0863:208.0969|145.0649:190.0864:74.0601|145.0649:74.0601:133.0648|145.0649:133.0649:74.0601|145.0648:133.0648:107.0491|208.097:190.0864:74.0601,208.0969;190.08635;178.0851;145.0648;133.0648;115.05435;107.0491;74.0601,Athens_Univ;Eawag,NA,NA,NA,NA,NA,NA
stpQQR966,Moclobemide|4-chloranyl-N-(2-morpholin-4-ylethyl)benzamide,Cl-c(ccc1C(=O)NCCN(CCO2)CC2)cc1,268.0979,C13H17ClN2O2,"InChI=1S/C13H17ClN2O2/c14-12-3-1-11(2-4-12)13(17)15-5-6-16-7-9-18-10-8-16/h1-4H,5-10H2,(H,15,17)",CAS_RN: 71320-77-9,4235,YHXISWVBGDMDLQ-UHFFFAOYSA-N,4087,DTXSID9040554,Positive,EA267501|EA267502|EA267503|EA267504|EA267505|EA267506|EA267507|EA267508|EA267509|EA267510|EA267511|EA267512|EA267513|EA267514,[M+H]+,CID35|HCD15|HCD30|HCD45|HCD60|HCD75|HCD90|HCD15|HCD30|HCD45|HCD60|HCD75|HCD90|CID35,182.0371:138.994:114.0912|269.1055:182.0362:138.9945|182.0369:269.1051:138.9944|182.0369:138.9945:269.1053|182.037:138.9947:114.0914|138.9947:182.0371:114.0916|138.9948:139.0063:182.0371|269.1054:182.0366|182.0369:269.1055:138.9942|182.0369:138.9945:269.1056|182.037:138.9947:114.0914|138.9947:182.037:139.0057|138.9947:139.0058:182.0368|182.0369:114.0914:138.9945,182.0369;139.0058;138.9945;114.0914,Eawag,NA,NA,NA,NA,NA,NA
stpQQR967,"Lamotrigine|6-(2,3-dichlorophenyl)-1,2,4-triazine-3,5-diamine",Cl-c(ccc1)c(Cl)c1-c(nnc2N)c(n2)N,255.0079,C9H7Cl2N5,"InChI=1S/C9H7Cl2N5/c10-5-3-1-2-4(6(5)11)7-8(12)14-9(13)16-15-7/h1-3H,(H4,12,13,14,16)",CAS_RN: 84057-84-1,3878,PYZRQGJRPPTADH-UHFFFAOYSA-N,3741,DTXSID2023195,Positive,AU152806;EA267601|EA267602|EA267603|EA267604|EA267605|EA267606|EA267607|EA267608|EA267609|EA267610|EA267611|EA267612|EA267613|EA267614,[M+H]+;[M+H]+,CIDRAMP 20.0-30.0;CID35|HCD15|HCD30|HCD45|HCD60|HCD75|HCD90|HCD15|HCD30|HCD45|HCD60|HCD75|HCD90|CID35,256.0157:258.0126:257.0182;256.0146:210.9824:220.0384|256.0154|256.0155|256.0154:210.9825:186.9824|256.0149:210.9824:186.9824|256.015:210.9823:186.9823|172.9668:156.9607:158.9763|256.0154|256.0154|256.0154:210.9824:166.0292|256.0153:210.9824:171.9715|256.0152:210.9825:186.9824|172.9668:156.9607:158.9763|256.015:210.9824:220.0384,220.0384;210.9824;186.9824;172.9668;171.9715;166.0292;158.9763;156.9607,Athens_Univ;Eawag,NA,NA,NA,NA,NA,NA
stpQQR968,"Reserpine|(1S,2R,3R,4aS,13bR,14aS)-2,11-dimethoxy-3-(3,4,5-trimethoxybenzoyl)oxy-1,2,3,4,4a,5,7,8,13,13b,14,14a-dodecahydroisoquinolino[3,2-a]$b-carboline-1-carboxylic acid methyl ester",COC1C(CC2CN3CCC4=C(C3CC2C1C(=O)OC)NC5=C4C=CC(=C5)OC)OC(=O)C6=CC(=C(C(=C6)OC)OC)OC,608.2734,C33H40N2O9,"InChI=1S/C33H40N2O9/c1-38-19-7-8-20-21-9-10-35-16-18-13-27(44-32(36)17-11-25(39-2)30(41-4)26(12-17)40-3)31(42-5)28(33(37)43-6)22(18)15-24(35)29(21)34-23(20)14-19/h7-8,11-12,14,18,22,24,27-28,31,34H,9-10,13,15-16H2,1-6H3/t18-,22+,24-,27-,28+,31+/m1/s1",CAS_RN: 50-55-5,5770,QEVHRUUCFGRFIF-MDEJGZGSSA-N,5566,DTXSID7021237,Positive,EA268201|EA268202|EA268203|EA268204|EA268205|EA268206|EA268207|EA268208|EA268209|EA268210|EA268211|EA268212|EA268213|EA268214,[M+H]+,CID35|HCD15|HCD30|HCD45|HCD60|HCD75|HCD90|HCD15|HCD30|HCD45|HCD60|HCD75|HCD90|CID35,448.1966:397.2121:577.2543|609.2807:448.2089:397.2255|195.0652:397.2118:609.2802|195.0653:174.0915:236.1281|174.0913:195.0651:159.0678|174.0913:159.0678:131.073|131.0729:159.0677:143.0729|609.2808:397.2131:608.2699|195.0651:397.2119:609.2801|195.0651:174.0913:236.1281|174.0913:195.0652:159.0678|174.0912:159.0678:131.0729|131.0729:159.0678:143.0729|448.1962:397.212:577.2542,608.2699;577.25425;448.2089;448.1964;397.2255;397.212;236.1281;195.06515;174.0913;159.0678;143.0729;131.0729,Eawag,NA,NA,NA,NA,NA,NA
stpQQR969,"Ifosfamide|Isophosphamide|N,3-Bis(2-chloroethyl)-1,3,2-oxazaphosphinan-2-amine 2-oxide",ClCCN(P(OC1)(=O)NCCCl)CC1,260.0248,C7H15Cl2N2O2P,"InChI=1S/C7H15Cl2N2O2P/c8-2-4-10-14(12)11(6-3-9)5-1-7-13-14/h1-7H2,(H,10,12)",CAS_RN: 3778-73-2,3690,HOMGKSMUEGBAAB-UHFFFAOYSA-N,3562,DTXSID7020760,Positive,EA268301|EA268302|EA268303|EA268304|EA268305|EA268306|EA268307|EA268308|EA268309|EA268310|EA268311|EA268312|EA268313|EA268314,[M+H]+,CID35|HCD15|HCD30|HCD45|HCD60|HCD75|HCD90|HCD15|HCD30|HCD45|HCD60|HCD75|HCD90|CID35,233.0008:182.0133:153.982|261.0322:233.0006|261.0321:233.0007:182.0132|92.0262:153.9819:261.0322|92.0262:153.9819:78.0106|92.0262:153.9819:78.0106|92.0262:153.9819:78.0105|261.0321:233.001|261.0322:233.0009:182.0134|92.0262:153.9819:261.0321|92.0262:153.9819:120.0575|92.0262:153.9819:78.0105|92.0262:153.9819:78.0105|233.0008:182.0133:153.9819,233.0008;182.0133;153.9819;120.0575;92.0262;78.0105,Eawag,NA,NA,NA,NA,NA,NA
stpQQR970,"10,11-trans-Dihydroxy-10,11-dihydrocarbamazepine|(5S,6S)-5,6-bis(oxidanyl)-5,6-dihydrobenzo[b][1]benzazepine-11-carboxamide",c12[C@@H]([C@@H](O)c3c(N(C(N)=O)c2cccc1)cccc3)O,270.1004,C15H14N2O3,"InChI=1S/C15H14N2O3/c16-15(20)17-11-7-3-1-5-9(11)13(18)14(19)10-6-2-4-8-12(10)17/h1-8,13-14,18-19H,(H2,16,20)/t13-,14-/m0/s1",CAS_RN: 58955-93-4,114725,PRGQOPPDPVELEG-KBPBESRZSA-N,102714,DTXSID10891461,Positive,AU203901|AU203902|AU203903|AU203904|AU203905;EA270101|EA270102|EA270103|EA270104|EA270105|EA270106|EA270107|EA270108|EA270109|EA270110|EA270111|EA270112|EA270113|EA270114,[M+H]+;[M+H]+,CID10|CID20|CID30|CID40|CID50;CID35|HCD15|HCD30|HCD45|HCD60|HCD75|HCD90|HCD15|HCD30|HCD45|HCD60|HCD75|HCD90|CID35,253.0956:254.0809:210.0906|180.0797:210.0906:254.0804|180.0796:182.095:210.0902|180.0799:182.0953:181.0838|180.0798:181.083:167.0719;253.0972:236.0707:210.0917|253.0973:236.0707:210.0914|210.0915:236.0708:180.0809|180.0809:210.0914:182.0965|180.0809:182.0964:210.0914|180.0808:182.0963:167.073|180.0808:167.073:182.0964|253.0971:236.0706:210.0913|210.0914:236.0707:180.0808|180.0808:210.0914:182.0964|180.0808:182.0964:210.0914|180.0808:182.0964:167.0729|180.0808:167.0729:182.0964|253.0973:236.0707:210.0915,254.08065;253.0972;236.0707;210.0914;182.0964;181.0834;180.0808;167.0729,Athens_Univ;Eawag,NA,NA,NA,NA,NA,NA
stpQQR971,"3,5,6-Trichloro-2-pyridinol|3,5,6-trichloro-1H-pyridin-2-one",ClC(NC(=O)C=1Cl)=C(Cl)C1,196.9202,C5H2Cl3N1O1,"InChI=1S/C5H2Cl3NO/c6-2-1-3(7)5(10)9-4(2)8/h1H,(H,9,10)",CAS_RN: 6515-38-4,23017,WCYYAQFQZQEUEN-UHFFFAOYSA-N,21541,DTXSID7038317,Negative,NA,NA,NA,NA,NA,NA,EA270451|EA270452|EA270453|EA270454|EA270455|EA270458|EA270459|EA270460|EA270461|EA270464,[M-H]-,CID35|HCD15|HCD30|HCD45|HCD60|HCD15|HCD30|HCD45|HCD60|CID35,195.9129:159.9366|195.9129|195.9128|195.9127|195.9123|195.913|195.9128|195.9127|195.9123|195.9129:159.9364,195.9128;159.9365,Eawag
stpQQR972,Diazoxon| diethyl (6-methyl-2-propan-2-yl-pyrimidin-4-yl) phosphate,O(c1nc(nc(c1)C)C(C)C)P(OCC)(OCC)=O,288.1239,C12H21N2O4P,"InChI=1S/C12H21N2O4P/c1-6-16-19(15,17-7-2)18-11-8-10(5)13-12(14-11)9(3)4/h8-9H,6-7H2,1-5H3",CAS_RN: 962-58-3,13754,VBLJFQYCTRKKKF-UHFFFAOYSA-N,13157,DTXSID5037523,Positive,EA270501|EA270502|EA270503|EA270504|EA270505|EA270506|EA270507|EA270508|EA270509|EA270510|EA270511|EA270512|EA270513|EA270514,[M+H]+,CID35|HCD15|HCD30|HCD45|HCD60|HCD75|HCD90|HCD15|HCD30|HCD45|HCD60|HCD75|HCD90|CID35,153.1024:261.1:233.0688|289.1311:153.1031:261.0992|153.1023:289.1311:261.1001|153.1022:233.0686:289.131|153.1023:84.0444:135.0917|153.1022:84.0444:70.0652|84.0444:153.1021:70.0652|289.131:153.102:261.1|153.1024:289.1311:261.0999|153.1024:233.0688:289.1318|153.1023:84.0444:135.0917|153.1022:84.0444:70.0651|84.0444:153.1022:70.0651|153.1023:261.0998:233.0686,261.09995;233.0687;153.1023;135.0917;84.0444;70.06515,Eawag,NA,NA,NA,NA,NA,NA
stpQQR973,Pyrimidinol|2-isopropyl-6-methyl-1H-pyrimidin-4-one,O=C/1/N=C(\N\C(=C\1)C)C(C)C,152.095,C8H12N2O1,"InChI=1S/C8H12N2O/c1-5(2)8-9-6(3)4-7(11)10-8/h4-5H,1-3H3,(H,9,10,11)",CAS_RN: 2814-20-2,17777,AJPIUNPJBFBUKK-UHFFFAOYSA-N,16799,DTXSID1027502,Positive,AU207101|AU207102|AU207103|AU207104;SM881401;EA270601|EA270602|EA270603|EA270604|EA270605|EA270606|EA270607|EA270608|EA270609|EA270610|EA270611|EA270612|EA270613|EA270614;UF419501|UF419502|UF419503|UF419504,[M+H]+;[M+H]+;[M+H]+;[M+H]+,CID10|CID20|CID30|CID40;HCD35;CID35|HCD15|HCD30|HCD45|HCD60|HCD75|HCD90|HCD15|HCD30|HCD45|HCD60|HCD75|HCD90|CID35;HCD55|HCD80|CID35|CID55,153.1019:154.1044:155.1068|153.1019:154.1044:137.0701|137.07:153.1019:138.0766|137.0698:138.0744:153.1002;153.1022:84.0444:70.0652;153.1023:84.0444:70.0652|153.1022:84.0446:138.0789|153.1022:84.0446:137.0715|153.1022:84.0444:70.0652|153.1022:84.0444:70.0651|84.0444:153.102:70.0651|84.0444:70.0651:153.102|153.1022:84.044:137.0704|153.1022:84.0444:137.0708|153.1022:84.0444:70.0651|153.1022:84.0444:70.0651|84.0444:153.1022:70.0651|84.0444:70.0651:153.1021|153.1022:84.0444:70.0651;153.1026:84.0446:70.0653|84.0445:153.1026:70.0652|153.1026:84.0446:70.0653|84.0445:153.1027:70.0653,138.0766;137.07025;84.0444;70.0651,Athens_Univ;CASMI_2016;Eawag;UFZ,NA,NA,NA,NA,NA,NA
stpQQR974,"Dioxoaminopyrine|AMDOPH|2-(N-[acetyl(methyl)amino]anilino)-2-keto-N,N-dimethyl-acetamide",c1ccccc1N(C(=O)C(=O)N(C)C)N(C)C(=O)C,263.127,C13H17N3O3,"InChI=1S/C13H17N3O3/c1-10(17)15(4)16(11-8-6-5-7-9-11)13(19)12(18)14(2)3/h5-9H,1-4H3",CAS_RN: 519-65-3,68214,IRTZMJWVZQYURE-UHFFFAOYSA-N,61521,DTXSID00199862,Positive,EA270801|EA270802|EA270803|EA270804|EA270805|EA270806|EA270807|EA270808|EA270809|EA270810|EA270811|EA270812|EA270813|EA270814,[M+H]+,CID35|HCD15|HCD30|HCD45|HCD60|HCD75|HCD90|HCD15|HCD30|HCD45|HCD60|HCD75|HCD90|CID35,222.1239:191.0816:236.1393|222.1239:191.0816:264.1344|191.0816:72.0444:222.1238|72.0445:191.0817:149.0711|72.0444:149.071:163.0866|72.0445:149.0711:92.0496|72.0444:65.0386:92.0495|222.1239:191.0817:264.1343|191.0816:72.0444:222.1237|72.0444:191.0816:149.071|72.0444:149.071:92.0495|72.0444:149.0709:92.0494|72.0445:65.0386:134.0475|222.1238:191.0815:236.1392,236.13925;222.12385;191.0816;163.0866;149.071;134.0475;92.0495;72.0444;65.0386,Eawag,NA,NA,NA,NA,NA,NA
stpQQR975,"Imidacloprid|N-[1-[(6-chloranylpyridin-3-yl)methyl]-4,5-dihydroimidazol-2-yl]nitramide",Cl-c(ncc1CN(CC2)C(N2)=NN(=O)=O)cc1,255.0523,C9H10ClN5O2,"InChI=1S/C9H10ClN5O2/c10-8-2-1-7(5-12-8)6-14-4-3-11-9(14)13-15(16)17/h1-2,5H,3-4,6H2,(H,11,13)",CAS_RN: 138261-41-3,86418,YWTYJOPNNQFBPC-UHFFFAOYSA-N,77934,DTXSID5032442,Positive/Negative,AU303601|AU303602|AU303603|AU303604|AU303605;SM839401;EA270901|EA270902|EA270903|EA270904|EA270905|EA270906|EA270907|EA270908|EA270909|EA270910|EA270911|EA270912|EA270913|EA270914,[M+H]+;[M+H]+;[M+H]+,CID10|CID20|CID30|CID40|CID50;HCD35;CID35|HCD15|HCD30|HCD45|HCD60|HCD75|HCD90|HCD15|HCD30|HCD45|HCD60|HCD75|HCD90|CID35,256.0594:175.0968:209.0583|175.0969:209.0583:211.055|175.097:209.0583:211.055|175.097:209.0583:211.055|209.0583:173.0811:175.0964;209.0588:175.0978:256.0595;209.059:210.0667:175.0978|256.0596:209.0588:210.0667|209.0588:175.0977:212.0583|175.0977:209.0587:128.0261|175.0977:209.0587:174.0899|209.0588:175.0977:173.0822|209.0587:175.0977:173.0821|256.0594:209.0587:175.0977|209.0588:175.0978:212.0584|175.0978:209.0588:84.0556|175.0977:209.0588:174.09|209.0588:175.0977:173.0821|209.0587:175.0977:173.082|209.0589:210.0667:175.0978,212.05835;211.055;210.0667;209.05875;175.0977;174.08995;173.0821;128.0261;84.0556,Athens_Univ;CASMI_2016;Eawag,AU303651;SM839454;EA270951|EA270952|EA270953|EA270954|EA270955|EA270956|EA270958|EA270959|EA270964,[M-H]-;[M-H]-;[M-H]-,CID10;HCD35;CID35|HCD15|HCD30|HCD45|HCD60|HCD75|HCD15|HCD30|CID35,254.0439:153.0234:256.0435;254.045;153.0225:207.0442:210.044|254.0449|254.045:153.0223|254.0453|85.9994|85.9993|254.0447:153.0219|254.0446:153.0224|153.0223:210.0435:207.0439,254.0449;210.04375;207.04405;153.02235;85.99935,Athens_Univ;CASMI_2016;Eawag
stpQQR976,MCPB|4-(4-chloranyl-2-methyl-phenoxy)butanoic acid,c1(c(cc(Cl)cc1)C)OCCCC(O)=O,228.0553,C11H13ClO3,"InChI=1S/C11H13ClO3/c1-8-7-9(12)4-5-10(8)15-6-2-3-11(13)14/h4-5,7H,2-3,6H2,1H3,(H,13,14)",CAS_RN: 94-81-5,7207,LLWADFLAOKUBDR-UHFFFAOYSA-N,6938,DTXSID4024193,Negative,NA,NA,NA,NA,NA,NA,EA271051|EA271052|EA271053|EA271054|EA271055|EA271056|EA271058|EA271059|EA271060|EA271064,[M-H]-,CID35|HCD15|HCD30|HCD45|HCD60|HCD75|HCD15|HCD30|HCD45|CID35,141.0112:158.9786|141.0114|141.011|141.0113|141.0111|141.0116|141.0112|141.0109|141.0111|158.9784:141.0111,158.9785;141.01115,Eawag
stpQQR977,"Pirimicarb|N,N-dimethylcarbamic acid [2-(dimethylamino)-5,6-dimethyl-4-pyrimidinyl] ester",n(c(c(C)c1OC(=O)N(C)C)C)c(n1)N(C)C,238.143,C11H18N4O2,InChI=1S/C11H18N4O2/c1-7-8(2)12-10(14(3)4)13-9(7)17-11(16)15(5)6/h1-6H3,CAS_RN: 23103-98-2,31645,YFGYUFNIOHWBOB-UHFFFAOYSA-N,29348,DTXSID1032569,Positive,SM841701;EA271101|EA271102|EA271103|EA271104|EA271105|EA271106|EA271107|EA271108|EA271109|EA271110|EA271111|EA271112|EA271113|EA271114;UF403901|UF403902|UF403903|UF403904,[M+H]+;[M+H]+;[M+H]+,HCD35;CID35|HCD15|HCD30|HCD45|HCD60|HCD75|HCD90|HCD15|HCD30|HCD45|HCD60|HCD75|HCD90|CID35;HCD55|HCD80|CID35|CID55,72.0445:239.1503:182.1289;182.129:195.1606:72.0444|239.1505:182.129:72.0441|239.1499:182.1288:72.0444|72.0445:182.1289:239.1511|72.0444:182.1287:85.076|72.0445:85.076:109.076|72.0445:109.0761:85.076|239.1504:182.1288:72.0442|239.1505:182.1289:72.0445|72.0445:182.1289:239.1494|72.0444:182.1289:85.076|72.0445:85.0761:182.129|72.0444:109.0761:85.0761|182.1289:195.1605:72.0444;72.0442:182.1286:85.0759|72.0442:109.0758:85.0759|182.1287:195.1603:239.1502|182.1287:195.1603:72.0443,195.1604;182.1289;109.07605;85.076;72.0444,CASMI_2016;Eawag;UFZ,NA,NA,NA,NA,NA,NA
stpQQR978,"Pyrimethanil|(4,6-dimethylpyrimidin-2-yl)-phenyl-amine",c(ccc1N-c(nc(c2)C)nc2C)cc1,199.1109,C12H13N3,"InChI=1S/C12H13N3/c1-9-8-10(2)14-12(13-9)15-11-6-4-3-5-7-11/h3-8H,1-2H3,(H,13,14,15)",CAS_RN: 53112-28-0,91650,ZLIBICFPKPWGIZ-UHFFFAOYSA-N,82753,DTXSID8034877,Positive,EA271201|EA271202|EA271203|EA271204|EA271205|EA271206|EA271207|EA271208|EA271209|EA271210|EA271211|EA271212|EA271213|EA271214,[M+H]+,CID35|HCD15|HCD30|HCD45|HCD60|HCD75|HCD90|HCD15|HCD30|HCD45|HCD60|HCD75|HCD90|CID35,200.1184:107.0604:183.0916|200.1182|200.1183|200.1183:183.0914:82.0651|200.1182:183.0916:107.0603|200.1182:183.0916:107.0603|200.1177:82.0651:107.0603|200.1182|200.1181|200.1182:107.0603:183.0916|200.1182:183.0917:107.0604|200.1183:183.0917:107.0604|200.1182:82.0651:107.0603|200.1182:107.0603:183.0916,183.0916;107.0603;82.0651,Eawag,NA,NA,NA,NA,NA,NA
stpQQR979,"Perfluorobutyric acid|Heptafluorobutyric acid| 2,2,3,3,4,4,4-heptafluorobutanoic acid",O=C(O)C(F)(F)C(F)(F)C(F)(F)F,213.9865,C4HF7O2,"InChI=1S/C4HF7O2/c5-2(6,1(12)13)3(7,8)4(9,10)11/h(H,12,13)",CAS_RN: 375-22-4,9777,YPJUNDFVDDCYIH-UHFFFAOYSA-N,9394,DTXSID4059916,Negative,NA,NA,NA,NA,NA,NA,SM823751;EA271351|EA271352|EA271353|EA271357|EA271358|EA271359|EA271360,[M-H]-;[M-H]-,HCD35;CID35|HCD15|HCD30|HCD90|HCD15|HCD30|HCD45,168.9894:212.979;168.9896:212.9789|168.9896:212.9791|168.9897|168.9897|168.9893:212.9784|168.9893|168.9892,212.97895;168.9895,CASMI_2016;Eawag
stpQQR980,"Perfluoropentanoic acid|Pentanoic acid, nonafluoro-| 2,2,3,3,4,4,5,5,5-nonafluoropentanoic acid",O=C(O)C(F)(F)C(F)(F)C(F)(F)C(F)(F)F,263.9833,C5HF9O2,"InChI=1S/C5HF9O2/c6-2(7,1(15)16)3(8,9)4(10,11)5(12,13)14/h(H,15,16)",CAS_RN: 2706-90-3,75921,CXZGQIAOTKWCDB-UHFFFAOYSA-N,68426,DTXSID6062599,Negative,NA,NA,NA,NA,NA,NA,EA271451|EA271452|EA271457|EA271458|EA271459|EA271460,[M-H]-,CID35|HCD15|HCD90|HCD15|HCD30|HCD45,218.9862:196.9834|218.986|218.9865|218.9858:196.9834|218.9857|218.9865,218.9861;196.9834,Eawag
stpQQR981,"Perfluorohexanoic acid| 2,2,3,3,4,4,5,5,6,6,6-undecafluorohexanoic acid",O=C(O)C(F)(F)C(F)(F)C(F)(F)C(F)(F)C(F)(F)F,313.9801,C6HF11O2,"InChI=1S/C6HF11O2/c7-2(8,1(18)19)3(9,10)4(11,12)5(13,14)6(15,16)17/h(H,18,19)",CAS_RN: 307-24-4,67542,PXUULQAPEKKVAH-UHFFFAOYSA-N,60864,DTXSID3031862,Negative,NA,NA,NA,NA,NA,NA,SM877154;EA271551|EA271552|EA271553|EA271554|EA271555|EA271557|EA271558|EA271559,[M-H]-;[M-H]-,HCD35;CID35|HCD15|HCD30|HCD45|HCD60|HCD90|HCD15|HCD30,268.9831:312.9727:225.9904;268.9834:312.9734|268.9833|118.9928|118.9921|118.9927|268.9836:312.9828|268.9828:312.9713|268.9821:118.9926:312.9834,312.9727;268.9832;225.9904;118.99265,CASMI_2016;Eawag
stpQQR982,"Perfluoroheptanoic acid| 2,2,3,3,4,4,5,5,6,6,7,7,7-tridecafluoroenanthic acid",O=C(O)C(F)(F)C(F)(F)C(F)(F)C(F)(F)C(F)(F)C(F)(F)F,363.9769,C7HF13O2,"InChI=1S/C7HF13O2/c8-2(9,1(21)22)3(10,11)4(12,13)5(14,15)6(16,17)7(18,19)20/h(H,21,22)",CAS_RN: 375-85-9,67818,ZWBAMYVPMDSJGQ-UHFFFAOYSA-N,61135,DTXSID1037303,Negative,NA,NA,NA,NA,NA,NA,EA271651|EA271652|EA271653|EA271654|EA271655|EA271658|EA271659,[M-H]-,CID35|HCD15|HCD30|HCD45|HCD60|HCD15|HCD30,318.9798:168.9891:362.982|318.9792:168.9891|168.9894:118.9925|168.9894:118.9921|318.98|318.9799:168.9891|168.9892:318.9796:118.9925,318.9798;168.98915;118.9925,Eawag
stpQQR983,"Perfluorooctanoic acid|PFOA| 2,2,3,3,4,4,5,5,6,6,7,7,8,8,8-pentadecafluorocaprylic acid",O=C(O)C(F)(F)C(F)(F)C(F)(F)C(F)(F)C(F)(F)C(F)(F)C(F)(F)F,413.9737,C8HF15O2,"InChI=1S/C8HF15O2/c9-2(10,1(24)25)3(11,12)4(13,14)5(15,16)6(17,18)7(19,20)8(21,22)23/h(H,24,25)",CAS_RN: 335-67-1,9554,SNGREZUHAYWORS-UHFFFAOYSA-N,9180,DTXSID8031865,Negative,NA,NA,NA,NA,NA,NA,SM877354;EA271751|EA271752|EA271753|EA271754|EA271757|EA271758|EA271759|EA271760,[M-H]-;[M-H]-,HCD35;CID35|HCD15|HCD30|HCD45|HCD90|HCD15|HCD30|HCD45,368.9761:168.9893;368.9771:168.9893:218.9863|368.9756:168.9891:218.9854|168.9893|168.9896|412.9758:368.9777|368.9768:168.9891:218.9856|168.9891:218.986|168.989:412.9771,368.9768;218.9858;168.9892,CASMI_2016;Eawag
stpQQR984,"Perfluorononanoic acid|Nonanoic acid, heptadecafluoro-| 2,2,3,3,4,4,5,5,6,6,7,7,8,8,9,9,9-heptadecafluorononanoic acid",O=C(O)C(F)(F)C(F)(F)C(F)(F)C(F)(F)C(F)(F)C(F)(F)C(F)(F)C(F)(F)F,463.9705,C9HF17O2,"InChI=1S/C9HF17O2/c10-2(11,1(27)28)3(12,13)4(14,15)5(16,17)6(18,19)7(20,21)8(22,23)9(24,25)26/h(H,27,28)",CAS_RN: 375-95-1,67821,UZUFPBIDKMEQEQ-UHFFFAOYSA-N,61138,DTXSID8031863,Negative,NA,NA,NA,NA,NA,NA,EA271851|EA271852|EA271853|EA271854|EA271856|EA271857|EA271858|EA271859,[M-H]-,CID35|HCD15|HCD30|HCD45|HCD75|HCD90|HCD15|HCD30,418.9733:218.9859:168.989|418.9719:218.9856|168.9887:218.9861|168.9901|418.9727|418.9739|418.9722:218.9862:168.9892|168.989:218.9858,418.9727;218.9859;168.989,Eawag
stpQQR985,"Perfluorodecanoic acid|Nonadecafluorodecanoic acid| 2,2,3,3,4,4,5,5,6,6,7,7,8,8,9,9,10,10,10-nonadecafluorocapric acid",O=C(O)C(F)(F)C(F)(F)C(F)(F)C(F)(F)C(F)(F)C(F)(F)C(F)(F)C(F)(F)C(F)(F)F,513.9673,C10HF19O2,"InChI=1S/C10HF19O2/c11-2(12,1(30)31)3(13,14)4(15,16)5(17,18)6(19,20)7(21,22)8(23,24)9(25,26)10(27,28)29/h(H,30,31)",CAS_RN: 335-76-2,9555,PCIUEQPBYFRTEM-UHFFFAOYSA-N,9181,DTXSID3031860,Negative,NA,NA,NA,NA,NA,NA,SM876951;EA272051|EA272052|EA272053|EA272058,[M-H]-;[M-H]-,HCD35;CID35|HCD15|HCD30|HCD15,468.9701:218.9862:268.9831;468.9703:218.986:268.9826|218.9862|468.9691|268.9823:218.9858,468.9701;268.9826;218.9861,CASMI_2016;Eawag