NORMAN_ID,NAME,SMILES,NEUTRAL_EXACT_MASS,FORMULA,StdInChI,CAS_RN,PUBCHEM_CID,InChIKey,CHEMSPIDER_ID,DTXSID,Preferable Ionization,MB_Records Positive Ionization,Adduct Positive Ionization,Ionisation type and collision energy Positive Ionization,Fragments Positive Ionization,Simplified_fragments_Positive,Institute Positive Ionization,MB_Records Negative Ionization,Adduct Negative Ionization,Ionisation type and collision energy Negative Ionization,Fragments Negative Ionization,Simplified_fragments_Negative,Institute Negative Ionization
stpQQR217,"Imidacloprid|N-[1-[(6-chloropyridin-3-yl)methyl]-4,5-dihydroimidazol-2-yl]nitramide",[O-][N+](=O)NC1=NCCN1Cc1ccc(Cl)nc1,255.0523,C9H10ClN5O2,"InChI=1S/C9H10ClN5O2/c10-8-2-1-7(5-12-8)6-14-4-3-11-9(14)13-15(16)17/h1-2,5H,3-4,6H2,(H,11,13)",CAS_RN: 138261-41-3,86418,YWTYJOPNNQFBPC-UHFFFAOYSA-N,77934,DTXSID5032442,Positive/Negative,AU303601|AU303602|AU303603|AU303604|AU303605;SM839401;EA270901|EA270902|EA270903|EA270904|EA270905|EA270906|EA270907|EA270908|EA270909|EA270910|EA270911|EA270912|EA270913|EA270914,[M+H]+;[M+H]+;[M+H]+,CID10|CID20|CID30|CID40|CID50;HCD35;CID35|HCD15|HCD30|HCD45|HCD60|HCD75|HCD90|HCD15|HCD30|HCD45|HCD60|HCD75|HCD90|CID35,256.0594:175.0968:209.0583|175.0969:209.0583:211.055|175.097:209.0583:211.055|175.097:209.0583:211.055|209.0583:173.0811:175.0964;209.0588:175.0978:256.0595;209.059:210.0667:175.0978|256.0596:209.0588:210.0667|209.0588:175.0977:212.0583|175.0977:209.0587:128.0261|175.0977:209.0587:174.0899|209.0588:175.0977:173.0822|209.0587:175.0977:173.0821|256.0594:209.0587:175.0977|209.0588:175.0978:212.0584|175.0978:209.0588:84.0556|175.0977:209.0588:174.09|209.0588:175.0977:173.0821|209.0587:175.0977:173.082|209.0589:210.0667:175.0978,212.05835;211.055;210.0667;209.05875;175.0977;174.08995;173.0821;128.0261;84.0556,Athens_Univ;CASMI_2016;Eawag,AU303651;SM839454;EA270951|EA270952|EA270953|EA270954|EA270955|EA270956|EA270958|EA270959|EA270964,[M-H]-;[M-H]-;[M-H]-,CID10;HCD35;CID35|HCD15|HCD30|HCD45|HCD60|HCD75|HCD15|HCD30|CID35,254.0439:153.0234:256.0435;254.045;153.0225:207.0442:210.044|254.0449|254.045:153.0223|254.0453|85.9994|85.9993|254.0447:153.0219|254.0446:153.0224|153.0223:210.0435:207.0439,254.0449;210.04375;207.04405;153.02235;85.99935,Athens_Univ;CASMI_2016;Eawag
stpQQR218,"Dimethachlor|2-chloro-N-(2,6-dimethylphenyl)-N-(2-methoxyethyl)acetamide",COCCN(C(=O)CCl)C1=C(C)C=CC=C1C,255.10261,C13H18ClNO2,"InChI=1S/C13H18ClNO2/c1-10-5-4-6-11(2)13(10)15(7-8-17-3)12(16)9-14/h4-6H,7-9H2,1-3H3",CAS_RN: 55353-08-7,39722,SCCDDNKJYDZXMM-UHFFFAOYSA-N,36319,DTXSID3058111,Positive,AU339001|AU339002|AU339003|AU339004|AU339005;SM839501;EA070701|EA070702|EA070703|EA070704|EA070705|EA070706|EA070707|EA070708|EA070709|EA070710|EA070711|EA070712|EA070713|EA070714,[M+H]+;[M+H]+;[M+H]+,CID10|CID20|CID30|CID40|CID50;HCD35;CID35|HCD15|HCD30|HCD45|HCD60|HCD75|HCD90|HCD15|HCD30|HCD45|HCD60|HCD75|HCD90|CID35,224.0837:256.11:226.0807|224.0837:226.0807:148.1109|148.1112:224.0837:226.0807|148.1113:133.0874:224.0825|148.111:133.0871:118.0643;224.0836:148.112:256.1098;224.084|224.084:256.1102|224.0839:256.1098:148.1121|224.0839:148.1122:132.0808|148.1122:224.0836:132.0808|148.1122:105.0699:132.0809|148.1122:105.0699:132.0809|224.0838:256.11:173.0152|224.0838:256.1103:148.1121|224.0838:148.1122:132.0807|148.1122:224.0839:132.0808|148.1122:105.07:132.0808|148.1121:105.0699:132.0808|224.0838,226.0807;224.0838;173.0152;148.1121;133.08725;132.0808;118.0643;105.0699,Athens_Univ;CASMI_2016;Eawag,NA,NA,NA,NA,NA,NA
stpQQR219,"Flufenacet|N-(4-fluorophenyl)-N-propan-2-yl-2-[[5-(trifluoromethyl)-1,3,4-thiadiazol-2-yl]oxy]acetamide",CC(C)N(C(=O)COc1nnc(s1)C(F)(F)F)c1ccc(F)cc1,363.06646,C14H13F4N3O2S,"InChI=1S/C14H13F4N3O2S/c1-8(2)21(10-5-3-9(15)4-6-10)11(22)7-23-13-20-19-12(24-13)14(16,17)18/h3-6,8H,7H2,1-2H3",CAS_RN: 142459-58-3,86429,IANUJLZYFUDJIH-UHFFFAOYSA-N,77944,DTXSID2032552,Positive,AU380001|AU380002|AU380003|AU380004|AU380005;SM839603;EA070901|EA070902|EA070903|EA070904|EA070905|EA070906|EA070907|EA070908|EA070909|EA070910|EA070911|EA070912|EA070913|EA070914,[M+H]+;[M+H]+;[M+H]+,CID10|CID20|CID30|CID40|CID50;HCD35;CID35|HCD15|HCD30|HCD45|HCD60|HCD75|HCD90|HCD15|HCD30|HCD45|HCD60|HCD75|HCD90|CID35,194.0968:364.0736:152.0496|152.0502:194.0972:124.0553|152.0499:124.0551:152.0865|152.0498:124.0551:152.0865|124.0553:152.0502:152.0866;152.0507:194.0977:124.0557;194.0975:152.0506:124.0555|194.0975:152.0506:364.0733|152.0506:194.0975:152.087|152.0507:124.0557:152.087|124.0556:152.0506:109.0447|124.0556:109.0447:152.0505|124.0556:97.0447:109.0448|194.0975:152.0506:364.0731|152.0506:194.0975:152.0871|152.0506:124.0556:152.087|124.0556:152.0505:109.0447|124.0556:109.0447:152.0504|124.0556:97.0447:109.0447|194.0975:152.0506:124.0556,194.0975;152.087;152.0506;124.0556;109.0447;97.0447,Athens_Univ;CASMI_2016;Eawag,NA,NA,NA,NA,NA,NA
stpQQR220,Propachlor|2-chloro-N-phenyl-N-propan-2-ylacetamide,CC(C)N(C(=O)CCl)c1ccccc1,211.07639,C11H14ClNO,"InChI=1S/C11H14ClNO/c1-9(2)13(11(14)8-12)10-6-4-3-5-7-10/h3-7,9H,8H2,1-2H3",CAS_RN: 1918-16-7,4931,MFOUDYKPLGXPGO-UHFFFAOYSA-N,4762,DTXSID4024274,Positive,AU362201|AU362202|AU362203|AU362204;SM839705;EA070801|EA070802|EA070803|EA070804|EA070805|EA070806|EA070807|EA070808|EA070809|EA070810|EA070811|EA070812|EA070813|EA070814,[M+H]+;[M+H]+;[M+H]+,CID10|CID20|CID30|CID40;HCD35;CID35|HCD15|HCD30|HCD45|HCD60|HCD75|HCD90|HCD15|HCD30|HCD45|HCD60|HCD75|HCD90|CID35,212.0833:170.0355:214.0802|170.0355:172.033:171.039|170.0355:172.033:152.0249|152.0249:170.0355:172.033;170.0367:212.0837:94.0651;170.037:152.0261:212.0847|212.0838:170.0372:152.025|170.0369:212.084:152.0262|170.0368:152.0261:212.0831|170.0367:94.0651:106.0651|94.0652:106.0652:170.0368|94.0651:106.0651:77.0385|212.0837:170.0367:152.0261|170.0368:212.0837:152.0262|170.0367:212.0837:152.0261|170.0367:94.0651:106.0651|94.0651:106.0651:170.0366|94.0652:106.0652:77.0386|170.0369:152.0262:212.0836,172.033;171.039;170.0367;152.0261;106.0651;94.0651;77.03855,Athens_Univ;CASMI_2016;Eawag,NA,NA,NA,NA,NA,NA
stpQQR221,"Prosulfocarb|S-benzyl N,N-dipropylcarbamothioate",CCCN(CCC)C(=O)SCc1ccccc1,251.13439,C14H21NOS,"InChI=1S/C14H21NOS/c1-3-10-15(11-4-2)14(16)17-12-13-8-6-5-7-9-13/h5-9H,3-4,10-12H2,1-2H3",CAS_RN: 52888-80-9,62020,NQLVQOSNDJXLKG-UHFFFAOYSA-N,55867,DTXSID3058119,Positive,SM839802;EA007101|EA007102|EA007103|EA007104|EA007105|EA007106|EA007107|EA007108|EA007109|EA007110|EA007111|EA007112|EA007113|EA007114;UF406301|UF406302|UF406303|UF406304,[M+H]+;[M+H]+;[M+H]+,HCD35;CID35|HCD15|HCD30|HCD45|HCD60|HCD75|HCD90|HCD15|HCD30|HCD45|HCD60|HCD75|HCD90|CID35;HCD55|HCD80|CID35|CID55,91.0542:252.1416:128.107;128.107:91.0542:86.0601|252.1418:91.054:128.107|91.0544:252.1415:128.107|91.0543:128.107:86.0601|91.0543:65.0385|91.0543:65.0386|91.0544:65.0386|252.1419:91.0541:128.1071|91.0543:252.1418:128.107|91.0543:128.107:86.0601|91.0543:65.0385|91.0543:65.0386:89.0384|91.0543:65.0386|128.1071:91.0543:86.0601;91.0541:128.1069:86.0598|91.0541|128.1069:91.0541:86.06|128.1068:91.0541:86.0599,128.107;91.0543;89.0384;86.0601;65.0386,CASMI_2016;Eawag;UFZ,NA,NA,NA,NA,NA,NA
stpQQR222,Pethoxamid|2-chloro-N-(2-ethoxyethyl)-N-(2-methyl-1-phenylprop-1-enyl)acetamide,CCOCCN(C(=O)CCl)C(=C(C)C)c1ccccc1,295.13391,C16H22ClNO2,"InChI=1S/C16H22ClNO2/c1-4-20-11-10-18(15(19)12-17)16(13(2)3)14-8-6-5-7-9-14/h5-9H,4,10-12H2,1-3H3",CAS_RN: 106700-29-2,6450826,CSWIKHNSBZVWNQ-UHFFFAOYSA-N,4953376,DTXSID4057928,Positive,SM839902;EA070001|EA070002|EA070003|EA070004|EA070005|EA070006|EA070007|EA070008|EA070009|EA070010|EA070011|EA070012|EA070013|EA070014;UF406201|UF406202|UF406203|UF406204,[M+H]+;[M+H]+;[M+H]+,HCD35;CID35|HCD15|HCD30|HCD45|HCD60|HCD75|HCD90|HCD15|HCD30|HCD45|HCD60|HCD75|HCD90|CID35;HCD55|HCD80|CID35|CID55,131.0855:250.0994:296.1413;250.0998:131.0856:134.0368|296.1413:250.0994:131.0855|250.0994:131.0856:296.1408|131.0856:91.0542:220.1694|131.0856:91.0543:129.0698|91.0543:131.0856:116.062|91.0543:116.0621:131.0855|296.1413:250.0994:131.0855|131.0856:250.0993:296.1409|131.0856:91.0543:220.1696|131.0856:91.0543:129.0699|91.0543:131.0856:116.0621|91.0543:116.0621:131.0856|250.0994:131.0856:134.0368;131.0854:91.0541:160.112|91.0541:131.0854:116.0619|250.0991:131.0854:134.0366|250.0992:131.0854:134.0367,250.0994;220.1695;160.112;134.03675;131.0856;129.06985;116.0621;91.0543,CASMI_2016;Eawag;UFZ,NA,NA,NA,NA,NA,NA
stpQQR223,"Ethofumesate|(2-ethoxy-3,3-dimethyl-2H-1-benzofuran-5-yl) methanesulfonate",CCOC1Oc2ccc(OS(C)(=O)=O)cc2C1(C)C,286.08749,C13H18O5S,"InChI=1S/C13H18O5S/c1-5-16-12-13(2,3)10-8-9(18-19(4,14)15)6-7-11(10)17-12/h6-8,12H,5H2,1-4H3",CAS_RN: 26225-79-6,33360,IRCMYGHHKLLGHV-UHFFFAOYSA-N,30816,DTXSID8034580,Positive,SM840003;EA011701|EA011702|EA011703|EA011704|EA011705|EA011706|EA011707|EA011708|EA011709|EA011710|EA011711|EA011712|EA011713|EA011714;UF401601|UF401602|UF401603|UF401604,[M+H]+;[M+H]+;[M+H]+,HCD35;CID35|HCD15|HCD30|HCD45|HCD60|HCD75|HCD90|HCD15|HCD30|HCD45|HCD60|HCD75|HCD90|CID35;HCD55|HCD80|CID35|CID55,121.0648:161.0597:122.0682;259.0638:241.0531:121.0649|259.0636:287.0948:121.0649|121.065:259.0637:161.0599|121.0649:161.0598:162.0676|121.0648:161.0597:133.0648|121.0649:105.07:133.065|105.0699:103.0543:91.0543|259.0636:287.0947:121.0649|121.0649:259.0636:161.0599|121.0649:161.0598:162.0676|121.0649:161.0598:133.0649|121.0649:105.0699:133.0648|105.0699:103.0543:91.0543|259.0636:241.053:121.0649;121.0647:161.0597:133.0648|105.0698:121.0647:103.0542|259.0636:241.053:121.0648|259.0636:121.0648:241.0531,259.0636;241.05305;162.0676;161.0598;133.0648;122.0682;121.0649;105.0699;103.0543;91.0543,CASMI_2016;Eawag;UFZ,NA,NA,NA,NA,NA,NA
stpQQR224,"Metamitron|4-amino-3-methyl-6-phenyl-1,2,4-triazin-5-one",CC1=NN=C(C(=O)N1N)c1ccccc1,202.08546,C10H10N4O,"InChI=1S/C10H10N4O/c1-7-12-13-9(10(15)14(7)11)8-5-3-2-4-6-8/h2-6H,11H2,1H3",CAS_RN: 41394-05-2,38854,VHCNQEUWZYOAEV-UHFFFAOYSA-N,35563,DTXSID7047568,Positive/Negative,AU353801|AU353802|AU353803|AU353804;SM840101;EA005801|EA005802|EA005803|EA005804|EA005805|EA005806|EA005807|EA005808|EA005809|EA005810|EA005811|EA005812|EA005813|EA005814;UF401701|UF401702|UF401703|UF401704,[M+H]+;[M+H]+;[M+H]+;[M+H]+,CID10|CID20|CID30|CID40;HCD35;CID35|HCD15|HCD30|HCD45|HCD60|HCD75|HCD90|HCD15|HCD30|HCD45|HCD60|HCD75|HCD90|CID35;HCD55|HCD80|CID35|CID55,203.0927:204.0947:175.0964|203.0927:175.0967:145.0381|175.0964:203.0911:174.0772|175.0966:118.0523;203.0927:175.0979:104.0495;175.0977:174.0789:106.0652|203.093|203.093:175.0976:174.0787|203.0928:175.0979:174.0788|175.0979:203.0922:104.0495|104.0495:175.0977:174.0786|104.0495:77.0386:175.0979|203.0929:175.0973:104.0491|203.093:175.098:174.0789|203.0929:175.098:174.0789|175.098:203.0929:104.0495|104.0496:175.0979:77.0386|104.0495:77.0386:175.0979|175.0979:174.0789:106.0652;175.0977:203.0926:104.0494|104.0493:175.0976:77.0384|203.0925:175.0977:174.0787|175.0977:174.0787:106.065,175.0977;174.07875;145.0381;118.0523;106.0652;104.0495;77.0386,Athens_Univ;CASMI_2016;Eawag;UFZ,EA005851|EA005852|EA005854|EA005855|EA005857|EA005858|EA005862|EA005864,[M-H]-,CID35|HCD15|HCD45|HCD60|HCD90|HCD15|HCD75|CID35,185.0594|201.0789|117.0345|117.0348|117.0346|201.0781|117.0343|185.0595,201.0785;185.05945;117.03455,Eawag
stpQQR225,Chloridazon|5-amino-4-chloro-2-phenylpyridazin-3-one,NC1=C(Cl)C(=O)N(N=C1)c1ccccc1,221.03559,C10H8ClN3O,"InChI=1S/C10H8ClN3O/c11-9-8(12)6-13-14(10(9)15)7-4-2-1-3-5-7/h1-6H,12H2",CAS_RN: 1698-60-8,15546,WYKYKTKDBLFHCY-UHFFFAOYSA-N,14790,DTXSID3034872,Positive/Negative,AU330002|AU330003|AU330004|AU330005;SM840201;EA008801|EA008802|EA008803|EA008804|EA008805|EA008806|EA008807|EA008808|EA008809|EA008810|EA008811|EA008812|EA008813|EA008814;UF401801|UF401802|UF401803|UF401804,[M+H]+;[M+H]+;[M+H]+;[M+H]+,CID20|CID40|CID40|CID50;HCD35;CID35|HCD15|HCD30|HCD45|HCD60|HCD75|HCD90|HCD15|HCD30|HCD45|HCD60|HCD75|HCD90|CID35;HCD55|HCD80|CID35|CID55,222.0424:224.0395:223.0452|222.0424:224.0395:146.0104|146.011:222.0424:128.9843|146.0105:130.0642:150.0095;222.0428:104.0495:92.0495;104.0495:222.0428:186.0662|222.043:77.0383|222.0431:104.0496:77.0383|222.0431:104.0496:92.0495|222.0428:104.0495:92.0495|92.0496:104.0496:222.0432|92.0495:77.0386:65.0386|222.043:77.0383|222.0431:104.0495|222.0431:104.0495:92.0495|222.043:104.0495:92.0495|92.0495:104.0495:222.0428|92.0495:77.0386:65.0386|104.0495:186.0661:193.0288;222.0427:104.0494:92.0494|92.0494:104.0494:77.0385|222.0426:104.0494:186.0662|104.0493:186.066:205.0162,205.0162;193.0288;186.06615;150.0095;146.0105;130.0642;128.9843;104.0495;92.0495;77.0384;65.0386,Athens_Univ;CASMI_2016;Eawag;UFZ,SM840252;EA008851|EA008852|EA008853|EA008854|EA008855|EA008856|EA008857|EA008858|EA008859|EA008860|EA008861|EA008862|EA008863|EA008864;UF401851|UF401852,[M-H]-;[M-H]-;[M-H]-,HCD35;CID35|HCD15|HCD30|HCD45|HCD60|HCD75|HCD90|HCD15|HCD30|HCD45|HCD60|HCD75|HCD90|CID35;HCD55|HCD80,220.0284:193.987;220.0284:73.9803:100.9912|220.0286|220.0285:73.9803:65.0145|220.0284:74.9643:150.0119|74.9643:117.046:150.0116|74.9643:117.046:73.9804|74.9643:117.0459:65.9984|220.0285|220.0286:73.9803:150.012|220.0283:74.9643:150.0116|74.9643:117.0457:150.0116|74.9642:117.0457:73.9803|74.9643:117.0459:73.9802|73.9802:184.0516:150.0114;220.0283|220.0288,220.02845;193.987;184.0516;150.0116;117.0459;100.9912;74.9643;73.9803;65.9984;65.0145,CASMI_2016;Eawag;UFZ
stpQQR226,"Spiroxamine|N-[(8-tert-butyl-1,4-dioxaspiro[4.5]decan-3-yl)methyl]-N-ethylpropan-1-amine",CCCN(CC)CC1COC2(CCC(CC2)C(C)(C)C)O1,297.26678,C18H35NO2,"InChI=1S/C18H35NO2/c1-6-12-19(7-2)13-16-14-20-18(21-16)10-8-15(9-11-18)17(3,4)5/h15-16H,6-14H2,1-5H3",CAS_RN: 118134-30-8,86160,PUYXTUJWRLOUCW-UHFFFAOYSA-N,77719,DTXSID1034212,Positive,SM840301;EA278901|EA278902|EA278903|EA278904|EA278905|EA278906|EA278907|EA278908|EA278909|EA278910|EA278911|EA278912|EA278913|EA278914;ET180001|ET180002|ET180003|ET180004|ET180005;UF401901|UF401902|UF401903|UF401904,[M+H]+;[M+H]+;[M+H]+;[M+H]+,"HCD35;CID35|HCD15|HCD30|HCD45|HCD60|HCD75|HCD90|HCD15|HCD30|HCD45|HCD60|HCD75|HCD90|CID35;HCD15, 30, 45, 60, 70 or 90|HCD15, 30, 45, 60, 70 or 90|HCD15, 30, 45, 60, 70 or 90|HCD15, 30, 45, 60, 70 or 90|HCD15, 30, 45, 60, 70 or 90;HCD55|HCD80|CID35|CID55",144.1383:298.2742:100.1121;144.1385:100.1122:240.2322|298.2743:144.1386|298.2742:144.1385:100.1122|144.1383:100.1121:298.2746|144.1384:100.1122:72.0808|100.1122:144.1384:72.0808|100.1121:72.0808:144.1382|298.2741:144.1381|298.2742:144.1384:100.1121|144.1384:100.1121:298.2741|144.1383:100.1121:72.0808|100.1122:144.1384:72.0808|100.1121:72.0808:144.1383|144.1384:100.1121:240.2321;144.1386:100.1122:72.081|100.1123:144.1386:72.081|100.1122:72.081:144.1385|100.1122:72.081:58.0656|298.2742:144.1384:100.1117;144.1381:100.112:72.0807|100.1119:144.1382:72.0806|144.1382:100.112:298.2741|144.1381:100.112:202.1227,240.23215;202.1227;144.1384;100.1121;72.0808;58.0656,CASMI_2016;Eawag;Eawag_Additional_Specs;UFZ,NA,NA,NA,NA,NA,NA
stpQQR227,"Simetryn|2-N,4-N-diethyl-6-methylsulfanyl-1,3,5-triazine-2,4-diamine",CCNc1nc(NCC)nc(SC)n1,213.10482,C8H15N5S,"InChI=1S/C8H15N5S/c1-4-9-6-11-7(10-5-2)13-8(12-6)14-3/h4-5H2,1-3H3,(H2,9,10,11,12,13)",CAS_RN: 1014-70-6,13905,MGLWZSOBALDPEK-UHFFFAOYSA-N,13303,DTXSID8037596,Positive,SM840401;UF402101|UF402102|UF402103|UF402104,[M+H]+;[M+H]+,HCD35;HCD55|HCD80|CID35|CID55,214.112:124.0869:96.0556;214.1122:124.0869:144.0591|96.0555:116.0276:124.0868|214.1119:124.0869:186.0807|124.0868:186.0806:166.1086,186.08065;166.1086;144.0591;124.0869;116.0276;96.05555,CASMI_2016;UFZ,NA,NA,NA,NA,NA,NA
stpQQR228,Azoxystrobin|methyl (E)-2-[2-[6-(2-cyanophenoxy)pyrimidin-4-yl]oxyphenyl]-3-methoxyprop-2-enoate,CO\C=C(\C(=O)OC)c1ccccc1Oc1cc(Oc2ccccc2C#N)ncn1,403.11682,C22H17N3O5,"InChI=1S/C22H17N3O5/c1-27-13-17(22(26)28-2)16-8-4-6-10-19(16)30-21-11-20(24-14-25-21)29-18-9-5-3-7-15(18)12-23/h3-11,13-14H,1-2H3/b17-13+",CAS_RN: 131860-33-8,3034285,WFDXOXNFNRHQEC-GHRIWEEISA-N,2298772,DTXSID0032520,Positive,AU324501|AU324502|AU324503|AU324504|AU324505;SM840502;EA008901|EA008902|EA008903|EA008904|EA008905|EA008906|EA008907|EA008908|EA008909|EA008910|EA008911|EA008912|EA008913|EA008914,[M+H]+;[M+H]+;[M+H]+,CID10|CID20|CID30|CID40|CID50;HCD35;CID35|HCD15|HCD30|HCD45|HCD60|HCD75|HCD90|HCD15|HCD30|HCD45|HCD60|HCD75|HCD90|CID35,372.0983:404.1244:373.1012|372.0983:373.1012:344.1027|344.1031:372.0983:329.0794|329.0794:344.1028:330.0825|329.0793:183.0544:172.0384;372.098:344.103:329.0795;372.098|372.0974:404.1234|372.0977:344.1028:316.1073|329.079:344.1026:372.0974|329.079:183.0552:328.0713|172.0392:156.0443:200.0342|172.0393:156.0444:130.04|372.0976:404.1234:172.0398|372.0978:344.1027:316.1076|329.0793:344.1027:372.0976|329.0792:183.0553:328.0713|172.0394:156.0445:200.0342|172.0394:156.0444:130.0399|372.0976,373.1012;372.09775;344.10275;330.0825;329.0793;328.0713;316.10745;200.0342;183.0552;172.03935;156.0444;130.03995,Athens_Univ;CASMI_2016;Eawag,NA,NA,NA,NA,NA,NA
stpQQR229,"Fenpropimorph|(2R,6S)-4-[3-(4-tert-butylphenyl)-2-methylpropyl]-2,6-dimethylmorpholine",CC(CN1C[C@H](C)O[C@H](C)C1)Cc1ccc(cc1)C(C)(C)C,303.25621,C20H33NO,"InChI=1S/C20H33NO/c1-15(12-21-13-16(2)22-17(3)14-21)11-18-7-9-19(10-8-18)20(4,5)6/h7-10,15-17H,11-14H2,1-6H3/t15?,16-,17+",CAS_RN: 67564-91-4,93365,RYAUSSKQMZRMAI-ALOPSCKCSA-N,84290,DTXSID4034601,Positive,SM840601;EA014601|EA014602|EA014603|EA014604|EA014605|EA014606|EA014607|EA014608|EA014609|EA014610|EA014611|EA014612|EA014613|EA014614,[M+H]+;[M+H]+,HCD35;CID35|HCD15|HCD30|HCD45|HCD60|HCD75|HCD90|HCD15|HCD30|HCD45|HCD60|HCD75|HCD90|CID35,304.2637:147.1168:130.1227;130.1226:147.1168:116.1069|304.2634|304.2634|304.2632:147.1168:130.1226|147.1169:98.0964:304.2631|147.1169:132.0934:98.0965|132.0933:117.0698:119.0855|304.2634:147.1172|304.2634|304.2634:147.1168:130.1226|147.1168:304.2644:98.0964|147.1168:132.0933:119.0855|132.0933:117.0698:147.1168|130.1226:147.1168:116.107,147.1168;132.0933;130.1226;119.0855;117.0698;116.10695;98.0964,CASMI_2016;Eawag,NA,NA,NA,NA,NA,NA
stpQQR230,"Epoxiconazole|1-[[3-(2-chlorophenyl)-2-(4-fluorophenyl)oxiran-2-yl]methyl]-1,2,4-triazole",FC1=CC=C(C=C1)C1(CN2C=NC=N2)OC1C1=CC=CC=C1Cl,329.07312,C17H13ClFN3O,"InChI=1S/C17H13ClFN3O/c18-15-4-2-1-3-14(15)16-17(23-16,9-22-11-20-10-21-22)12-5-7-13(19)8-6-12/h1-8,10-11,16H,9H2",CAS_RN: 135319-73-2,3317081,ZMYFCFLJBGAQRS-UHFFFAOYSA-N,2564795,DTXSID1040372,Positive,SM840702,[M+H]+,HCD35,121.0448:330.0805:123.0241,123.0241;121.0448,CASMI_2016,NA,NA,NA,NA,NA,NA
stpQQR231,"Desethylatrazine|Deethylatrazine|6-chloro-2-N-propan-2-yl-1,3,5-triazine-2,4-diamine",CC(C)Nc1nc(N)nc(Cl)n1,187.06247,C6H10ClN5,"InChI=1S/C6H10ClN5/c1-3(2)9-6-11-4(7)10-5(8)12-6/h3H,1-2H3,(H3,8,9,10,11,12)",CAS_RN: 6190-65-4,22563,DFWFIQKMSFGDCQ-UHFFFAOYSA-N,21157,DTXSID5037494,Positive,AU301601|AU301602|AU301603|AU301604;SM840801;EA030901|EA030902|EA030903|EA030904|EA030905|EA030906|EA030907|EA030908|EA030909|EA030910|EA030911|EA030912|EA030913|EA030914;UF402501|UF402502|UF402503|UF402504,[M+H]+;[M+H]+;[M+H]+;[M+H]+,CID10|CID20|CID30|CID40;HCD35;CID35|HCD15|HCD30|HCD45|HCD60|HCD75|HCD90|HCD15|HCD30|HCD45|HCD60|HCD75|HCD90|CID35;HCD55|HCD80|CID35|CID55,188.0691:190.0659:146.0219|146.0219:188.0691:148.0187|146.0219:148.0187:147.0237|146.0219:148.0187:147.0237;188.0697:146.0227:104.001;146.0228:188.07:104.001|188.0698|188.0699:146.0226:104.0011|188.0698:146.0228:104.0009|146.0228:188.0695:104.001|146.0228:104.001:79.0058|104.001:146.0227:79.0058|188.0696:146.0232|188.0696:146.0228:104.0009|188.0696:146.0228:104.0009|146.0228:188.0697:104.0009|146.0227:104.0009:79.0057|104.001:146.0227:79.0058|146.0228:188.0696:110.0461;146.0228:188.0699:104.001|146.0227:104.0009:79.0057|146.0227:188.0697:110.0461|146.0227:110.0461:104.001,148.0187;147.0237;146.0227;110.0461;104.001;79.0058,Athens_Univ;CASMI_2016;Eawag;UFZ,NA,NA,NA,NA,NA,NA