NORMAN_ID,NAME,SMILES,NEUTRAL_EXACT_MASS,FORMULA,StdInChI,CAS_RN,PUBCHEM_CID,InChIKey,CHEMSPIDER_ID,DTXSID,Preferable Ionization,MB_Records Positive Ionization,Adduct Positive Ionization,Ionisation type and collision energy Positive Ionization,Fragments Positive Ionization,Simplified_fragments_Positive,Institute Positive Ionization,MB_Records Negative Ionization,Adduct Negative Ionization,Ionisation type and collision energy Negative Ionization,Fragments Negative Ionization,Simplified_fragments_Negative,Institute Negative Ionization
stpQQR828,Paracetamol|Acetaminophen|N-(4-hydroxyphenyl)acetamide,CC(=O)NC1=CC=C(O)C=C1,151.0633,C8H9N1O2,"InChI=1S/C8H9NO2/c1-6(10)9-7-2-4-8(11)5-3-7/h2-5,11H,1H3,(H,9,10)",CAS_RN: 103-90-2,1983,RZVAJINKPMORJF-UHFFFAOYSA-N,1906,DTXSID2020006,Positive/Negative,AU112601;SM805001;SM866701;EA024301|EA024302|EA024303|EA024304|EA024305|EA024306|EA024307|EA024308|EA024309|EA024310|EA024311|EA024312|EA024313|EA024314;UF409101|UF409102|UF409103|UF409104,[M+H]+;[M+H]+;[M+H]+;[M+H]+;[M+H]+,CID16.3-24.4;HCD35;HCD35;CID35|HCD15|HCD30|HCD45|HCD60|HCD75|HCD90|HCD15|HCD30|HCD45|HCD60|HCD75|HCD90|CID35;HCD55|HCD80|CID35|CID55,152.0716:110.0622:65.0389;152.0706:110.06:93.0335;152.0705:110.06:93.0335;152.0707:110.0601:134.0601|152.0708:110.06|152.0707:110.0601:134.0603|152.0707:110.0601:134.0602|110.0601:152.0706:92.0495|110.0601:65.0386:93.0335|110.0601:65.0386:93.0335|152.0707:110.06|152.0706:110.0601:65.0384|152.0706:110.0601:134.06|110.0601:152.0706:65.0386|110.0601:65.0386:93.0335|110.06:65.0386:92.0495|152.0706:110.06:134.06;110.06:152.0707:92.0495|110.06:92.0495:93.0336|110.0601:134.0602:152.0709|110.06:134.0602:111.0443,134.0602;111.0443;110.0601;93.0335;92.0495;65.0386,Athens_Univ;CASMI_2016;CASMI_2016;Eawag;UFZ,EA024351|EA024352|EA024353|EA024354|EA024355|EA024356|EA024357|EA024358|EA024359|EA024360|EA024361|EA024362|EA024364,[M-H]-,CID35|HCD15|HCD30|HCD45|HCD60|HCD75|HCD90|HCD15|HCD30|HCD45|HCD60|HCD75|CID35,150.0562:107.0376|150.056|150.0563|150.0561:107.0375|107.0377:150.0561|107.0376|107.0375|150.0561|150.056|150.0559:107.0374|107.0375:150.056|107.0374|150.056:107.0375,150.05605;107.0375,Eawag
stpQQR829,"N4-Acetylsulfadimethoxine|N-[4-[(4,6-dimethoxy-2-pyrimidinyl)sulfamoyl]phenyl]acetamide",C(C)(=O)Nc1ccc(cc1)S(=O)(=O)Nc1nc(cc(n1)OC)OC,352.0841,C14H16N4O5S,"InChI=1S/C14H16N4O5S/c1-9(19)15-10-4-6-11(7-5-10)24(20,21)18-14-16-12(22-2)8-13(17-14)23-3/h4-8H,1-3H3,(H,15,19)(H,16,17,18)",CAS_RN: 24341-30-8,168167,DQWIIKBKAIPUPY-UHFFFAOYSA-N,147099,DTXSID90891444,Positive/Negative,AU201102|AU201103|AU201104|AU201105;EA024501|EA024502|EA024503|EA024504|EA024505|EA024506|EA024507|EA024508|EA024509|EA024510|EA024511|EA024512|EA024513|EA024514,[M+H]+;[M+H]+,CID20|CID30|CID40|CID50;CID35|HCD15|HCD30|HCD45|HCD60|HCD75|HCD90|HCD15|HCD30|HCD45|HCD60|HCD75|HCD90|CID35,353.0916:354.0941:156.0761|156.0755:155.0676:134.0588|134.0591:156.0755:155.0671|154.0601:134.059:156.0751;156.077:287.1141:321.0653|353.0918|353.0917:156.0769:198.022|134.0601:156.0768:155.069|134.0601:154.0612:156.0769|154.0611:65.0386:108.0444|65.0386:154.0611:108.0444|353.0918:155.0691:156.0769|353.0918:156.0768:198.022|134.0602:156.0769:155.0691|134.0601:154.0612:156.0768|154.0611:65.0386:108.0444|65.0386:154.0612:108.0444|156.0769:287.1139:321.0652,321.06525;287.114;198.022;156.0768;155.069;154.0611;134.0601;108.0444;65.0386,Athens_Univ;Eawag,EA024551|EA024553|EA024554|EA024555|EA024556|EA024557|EA024558|EA024559|EA024560|EA024561|EA024562|EA024563,[M-H]-,CID35|HCD30|HCD45|HCD60|HCD75|HCD90|HCD15|HCD30|HCD45|HCD60|HCD75|HCD90,196.0728:122.0362:271.1197|351.0752:196.0729:134.0611|122.0359:134.0611|122.0363:154.0631:134.0613|122.0358:139.038:66.0097|139.0383|351.0763|351.0759:196.073:134.0613|122.036:134.0611:154.0619|122.0359:154.0618:66.0096|122.0363:154.0622:139.0385|122.0361:66.0098:139.0384,351.0759;271.1197;196.0729;154.06205;139.03835;134.0611;122.03605;66.0097,Eawag
stpQQR830,"N4-Acetylsulfamethazine|N-[4-[(4,6-dimethyl-2-pyrimidinyl)sulfamoyl]phenyl]acetamide",O=S(=O)(c1ccc(cc1)NC(=O)C)Nc1nc(cc(n1)C)C,320.0943,C14H16N4O3S,"InChI=1S/C14H16N4O3S/c1-9-8-10(2)16-14(15-9)18-22(20,21)13-6-4-12(5-7-13)17-11(3)19/h4-8H,1-3H3,(H,17,19)(H,15,16,18)",CAS_RN: 100-90-3,66855,LJKAKWDUZRJNPJ-UHFFFAOYSA-N,60219,DTXSID50142848,Positive/Negative,AU201201|AU201202|AU201203|AU201204|AU201205;EA024701|EA024702|EA024703|EA024704|EA024705|EA024706|EA024707|EA024708|EA024709|EA024710|EA024711|EA024712|EA024713|EA024714,[M+H]+;[M+H]+,CID10|CID20|CID30|CID40|CID50;CID35|HCD15|HCD30|HCD45|HCD60|HCD75|HCD90|HCD15|HCD30|HCD45|HCD60|HCD75|HCD90|CID35,321.1016:322.1037:323.1013|321.1014:204.0429:322.1037|134.059:204.043:124.0859|134.0589:124.0859:204.043|124.0858:134.059:213.1118;186.0334:198.022:204.0438|321.1017|321.1017:186.0332:198.0219|134.0601:124.087:186.0332|134.0601:124.087:108.0444|65.0386:124.0869:134.0601|65.0386:124.0868:108.0443|321.102:186.0334|321.1019:186.0332:124.0869|134.0601:124.087:186.0332|134.0601:124.087:108.0444|65.0386:124.0869:134.06|65.0386:108.0444:124.0869|186.0333:198.0219:204.0437,213.1118;204.043;198.0219;186.0332;134.0601;124.0869;108.0444;65.0386,Athens_Univ;Eawag,EA024751|EA024752|EA024753|EA024754|EA024755|EA024756|EA024757|EA024758|EA024759|EA024760|EA024761|EA024762|EA024763,[M-H]-,CID35|HCD15|HCD30|HCD45|HCD60|HCD75|HCD90|HCD15|HCD30|HCD45|HCD60|HCD75|HCD90,134.0614:239.1301:164.0829|319.0859|319.0869:134.0609:255.1248|134.0612:106.0409:205.0147|134.0612:106.0411:122.0724|106.041:122.0724:92.0503|106.0412:122.0724:92.0508|319.0866|134.0611:319.0861:255.125|134.0611:106.0412:122.0724|134.0613:106.0412:122.0723|106.0411:122.0725:92.0505|106.0411:122.0727:92.0507,319.08635;255.1249;239.1301;205.0147;164.0829;134.0612;122.0724;106.0411;92.0506,Eawag
stpQQR831,N4-Acetylsulfadiazine|N-[4-(2-pyrimidinylsulfamoyl)phenyl]acetamide,c1nc(NS(c2ccc(cc2)NC(C)=O)(=O)=O)ncc1,292.063,C12H12N4O3S,"InChI=1S/C12H12N4O3S/c1-9(17)15-10-3-5-11(6-4-10)20(18,19)16-12-13-7-2-8-14-12/h2-8H,1H3,(H,15,17)(H,13,14,16)",CAS_RN: 127-74-2,64952,NJIZUWGMNCUKGU-UHFFFAOYSA-N,58478,DTXSID00155362,Positive/Negative,AU201301|AU201302|AU201303|AU201304|AU201305;EA024801|EA024802|EA024803|EA024804|EA024805|EA024806|EA024807|EA024808|EA024809|EA024810|EA024811|EA024812|EA024813|EA024814,[M+H]+;[M+H]+,CID10|CID20|CID30|CID40|CID50;CID35|HCD15|HCD30|HCD45|HCD60|HCD75|HCD90|HCD15|HCD30|HCD45|HCD60|HCD75|HCD90|CID35,293.0699:294.0727:295.0669|293.0702:198.0212:134.0589|134.0591:198.0207:227.0911|134.0591:185.0809:135.0609|134.0594:185.0813:158.0696;136.0758:198.022:227.0929|293.0705:136.075|293.0703:198.0219:136.0757|134.06:108.0444:198.0219|134.06:65.0386:108.0443|65.0386:134.0602:108.0445|65.0386:108.0444:92.0495|293.0704:198.0225:136.0761|293.0701:198.0219:136.0756|134.0601:108.0444:198.0221|134.06:108.0444:65.0386|65.0386:134.06:108.0444|65.0386:108.0444:96.0556|136.0756:198.0218:227.0926,227.0926;198.0219;185.0811;158.0696;136.07565;135.0609;134.06;108.0444;96.0556;92.0495;65.0386,Athens_Univ;Eawag,EA024851|EA024852|EA024853|EA024854|EA024855|EA024856|EA024857|EA024858|EA024859|EA024860|EA024861|EA024862,[M-H]-,CID35|HCD15|HCD30|HCD45|HCD60|HCD75|HCD90|HCD15|HCD30|HCD45|HCD60|HCD75,227.0944:134.0615:211.0991|291.0552|227.0938:134.061|134.0612:227.0934:92.0253|184.0756:134.0614:92.0255|184.0752:92.0255:94.0412|92.0254:134.0616:94.0408|291.0551:227.0948|227.094:291.0549:134.0611|227.0939:134.0611:92.0255|134.0613:184.0752:227.0937|184.0754:92.0255:94.0412,291.0551;227.0939;211.0991;184.0753;134.06125;94.0412;92.0255,Eawag
stpQQR832,"N4-Acetylsulfathiazole|N-[4-(1,3-thiazol-2-ylsulfamoyl)phenyl]acetamide",c1(ccc(NC(=O)C)cc1)S(=O)(NC2=NC=CS2)=O,297.0242,C11H11N3O3S2,"InChI=1S/C11H11N3O3S2/c1-8(15)13-9-2-4-10(5-3-9)19(16,17)14-11-12-6-7-18-11/h2-7H,1H3,(H,12,14)(H,13,15)",CAS_RN: 127-76-4,67183,KXNXWINFSDKMHD-UHFFFAOYSA-N,60527,DTXSID40891439,Positive/Negative,AU201001|AU201002|AU201003|AU201004|AU201005;EA024901|EA024902|EA024903|EA024904|EA024905|EA024906|EA024907|EA024908|EA024909|EA024910|EA024911|EA024912|EA024913|EA024914,[M+H]+;[M+H]+,CID10|CID20|CID30|CID40|CID50;CID35|HCD15|HCD30|HCD45|HCD60|HCD75|HCD90|HCD15|HCD30|HCD45|HCD60|HCD75|HCD90|CID35,298.0319:299.0345:300.0271|198.0209:298.0307:134.0594|134.0594:198.0213:135.0623|134.0594:135.0618:140.016|134.0594:140.0154;198.022:108.0444:232.0548|298.0313|298.0311:198.0216:134.0601|134.0601:198.0217:108.0445|134.0602:65.0386:108.0443|65.0386:134.0598:108.0444|65.0386:108.0444:92.0493|298.0312|198.0217:298.0312:134.06|134.06:108.0443:198.022|134.06:65.0385:108.0445|65.0386:134.06:108.0446|65.0385:108.0443:92.0494|198.0218:134.06:232.0536,232.0542;198.0217;140.0157;135.06205;134.06;108.0444;92.04935;65.0386,Athens_Univ;Eawag,EA024951|EA024952|EA024953|EA024959|EA024960,[M-H]-,CID35|HCD15|HCD30|HCD30|HCD45,198.0231:205.0441:134.0613|296.0161|198.0233:296.0176|198.0237|296.0167,296.0167;205.0441;198.0233;134.0613,Eawag
stpQQR833,"Bentazone|2,2-bis(oxidanylidene)-3-propan-2-yl-1H-2$l^{6},1,3-benzothiadiazin-4-one",c12c(C(N(C(C)C)S(N1)(=O)=O)=O)cccc2,240.0563,C10H12N2O3S,"InChI=1S/C10H12N2O3S/c1-7(2)12-10(13)8-5-3-4-6-9(8)11-16(12,14)15/h3-7,11H,1-2H3",CAS_RN: 25057-89-0,2328,ZOMSMJKLGFBRBS-UHFFFAOYSA-N,2238,DTXSID0023901,Positive/Negative,EA025301|EA025302|EA025303|EA025304|EA025305|EA025306|EA025307|EA025308|EA025309|EA025310|EA025311|EA025312|EA025313|EA025314,[M+H]+,CID35|HCD15|HCD30|HCD45|HCD60|HCD75|HCD90|HCD15|HCD30|HCD45|HCD60|HCD75|HCD90|CID35,199.0173|199.0172|199.0171:135.0549:120.0448|199.0172:135.0554:120.0444|107.0604:135.0554:120.0444|107.0603:120.0441:92.0492|107.0603:80.0495:120.044|199.0171|199.0171:120.0443|199.0171:135.0554:107.0603|107.0603:120.0443:135.0551|107.0604:120.0444:80.0495|107.0603:80.0494:120.0442|199.0171,199.0171;135.0554;120.0443;107.0603;92.0492;80.0495,Eawag,AU325851|AU325852|AU325853|AU325854;SM838051;EA025351|EA025352|EA025353|EA025354|EA025355|EA025356|EA025357|EA025358|EA025359|EA025360|EA025361|EA025362|EA025363|EA025364,[M-H]-;[M-H]-;[M-H]-,CID10|CID20|CID30|CID40;HCD35;CID35|HCD15|HCD30|HCD45|HCD60|HCD75|HCD90|HCD15|HCD30|HCD45|HCD60|HCD75|HCD90|CID35,239.0502:240.0525:241.0471|239.0503:175.0874:132.033|132.0324:133.0392:197.0044|132.0321:133.041;239.0495:132.0327:197.0026;197.0029:175.088:132.033|239.0497|239.0497:175.0878:197.0033|239.0496:175.0878:197.0027|132.0329:133.0407:197.0027|132.0329:133.0407:197.0029|132.0329:133.0406:117.046|239.0496|239.0498:175.0877:197.0023|239.0496:175.0877:197.0026|132.0329:197.0027:133.0407|132.0329:133.0407:197.0026|132.0328:133.0405:117.0455|197.0029:175.088:132.033,239.0497;197.0027;175.0878;133.0407;132.0329;117.04575,Athens_Univ;CASMI_2016;Eawag
stpQQR834,"Dimethenamid-P|2-chloranyl-N-(2,4-dimethylthiophen-3-yl)-N-[(2S)-1-methoxypropan-2-yl]ethanamide",CC1=CSC(=C1N(C(C)COC)C(=O)CCl)C,275.0741,C12H18ClNO2S,"InChI=1S/C12H18ClNO2S/c1-8-7-17-10(3)12(8)14(11(15)5-13)9(2)6-16-4/h7,9H,5-6H2,1-4H3",CAS_RN: 87674-68-8,91744,JLYFCTQDENRSOL-UHFFFAOYSA-N,82842,DTXSID20858782,Positive,AU339101|AU339102|AU339103|AU339104|AU339105;SM839002;EA025401|EA025402|EA025403|EA025404|EA025405|EA025406|EA025407|EA025408|EA025409|EA025410|EA025411|EA025412|EA025413|EA025414,[M+H]+;[M+H]+;[M+H]+,CID10|CID20|CID30|CID40|CID50;HCD35;CID35|HCD15|HCD30|HCD45|HCD60|HCD75|HCD90|HCD15|HCD30|HCD45|HCD60|HCD75|HCD90|CID35,244.0556:276.082:246.0522|244.0553:246.0523:168.0829|168.0833:244.0553:246.0523|168.0834:126.0368:152.0522|126.0368:138.0363:168.0831;244.0558:168.0842:276.0821;244.056|244.0558:276.0819:168.0835|244.0559:276.0818:168.0841|244.0559:168.0842:167.0763|168.0843:244.0557:111.0263|168.0843:111.0264:126.0373|111.0263:126.0371:138.0371|244.0557:276.0819|244.0557:276.0825:168.0841|244.0558:168.0842:111.0262|168.0842:244.0558:111.0263|168.0841:111.0263:126.0372|111.0263:126.0372:138.0372|244.0558,246.0523;244.0558;168.0841;167.0763;152.0522;138.0371;126.03715;111.0263,Athens_Univ;CASMI_2016;Eawag,NA,NA,NA,NA,NA,NA
stpQQR835,"Tebutam|2,2-dimethyl-N-(phenylmethyl)-N-propan-2-yl-propanamide|N-Benzyl-N-isopropylpivalamide",c1ccccc1CN(C(=O)C(C)(C)C)C(C)C,233.1774,C15H23NO,"InChI=1S/C15H23NO/c1-12(2)16(14(17)15(3,4)5)11-13-9-7-6-8-10-13/h6-10,12H,11H2,1-5H3",CAS_RN: 35256-85-0,92299,RJKCKKDSSSRYCB-UHFFFAOYSA-N,83330,DTXSID5041691,Positive,EA025501|EA025502|EA025503|EA025504|EA025505|EA025506|EA025507|EA025508|EA025509|EA025510|EA025511|EA025512|EA025513|EA025514,[M+H]+,CID35|HCD15|HCD30|HCD45|HCD60|HCD75|HCD90|HCD15|HCD30|HCD45|HCD60|HCD75|HCD90|CID35,91.0543:192.1384:142.1227|234.1855:91.0538:142.1225|234.1854:91.0543:192.1385|91.0543:234.1857:192.1383|91.0543:57.0698:192.1385|91.0543:57.0698:105.0699|91.0543:65.0386:57.0699|234.1854:91.0538:57.0697|234.1854:91.0543:192.1384|91.0543:234.1851:192.1383|91.0543:192.1383:57.0698|91.0543:57.0698:133.1012|91.0543:65.0386:57.0698|91.0543:192.1384:142.1227,192.1384;142.1227;133.1012;105.0699;91.0543;65.0386;57.0698,Eawag,NA,NA,NA,NA,NA,NA
stpQQR836,"Dinoseb|2,4-dinitro-6-sec-butyl-phenol",OC1=C([N+]([O-])=O)C=C([N+]([O-])=O)C=C1C(C)CC,240.0746,C10H12N2O5,"InChI=1S/C10H12N2O5/c1-3-6(2)8-4-7(11(14)15)5-9(10(8)13)12(16)17/h4-6,13H,3H2,1-2H3",CAS_RN: 88-85-7,6950,OWZPCEFYPSAJFR-UHFFFAOYSA-N,6684,DTXSID3020207,Negative,NA,NA,NA,NA,NA,NA,SM818656;EA025751|EA025752|EA025753|EA025754|EA025755|EA025756|EA025757|EA025758|EA025759|EA025760|EA025761|EA025762|EA025763|EA025764,[M-H]-;[M-H]-,HCD35;CID35|HCD15|HCD30|HCD45|HCD60|HCD75|HCD90|HCD15|HCD30|HCD45|HCD60|HCD75|HCD90|CID35,239.0674:194.0459:193.0255;194.046:222.0646:239.0673|239.0674|239.0673:194.0466:222.0652|239.0673:194.0458:193.0255|193.0252:194.0458:239.0675|193.0254:194.0453:192.0664|134.0247:193.0257:176.0354|239.0673|239.0673:194.0458|239.0672:194.0457:193.0253|193.0253:194.0456:239.0673|193.0253:194.0457:192.0663|134.0246:193.0252:162.0195|194.0459:222.0644:221.0566,239.0673;222.0646;221.0566;194.0458;193.0253;192.06635;176.0354;162.0195;134.02465,CASMI_2016;Eawag
stpQQR837,"Mesotrione|2-[4-(methanesulfonyl)-2-nitrobenzoyl]cyclohexane-1,3-dione",C1(C(C(CCC1)=O)C(c1c(cc(cc1)S(=O)(=O)C)[N+](=O)[O-])=O)=O,339.0407,C14H13NO7S,"InChI=1S/C14H13NO7S/c1-23(21,22)8-5-6-9(10(7-8)15(19)20)14(18)13-11(16)3-2-4-12(13)17/h5-7,13H,2-4H2,1H3",CAS_RN: 104206-82-8,175967,KPUREKXXPHOJQT-UHFFFAOYSA-N,153301,DTXSID7032424,Positive/Negative,AU318001|AU318002|AU318003;EA025801|EA025802|EA025803|EA025804|EA025805|EA025806|EA025807|EA025808|EA025809|EA025810|EA025811|EA025812|EA025813|EA025814,[M+H]+;[M+H]+,CID10|CID20|CID30;CID35|HCD15|HCD30|HCD45|HCD60|HCD75|HCD90|HCD15|HCD30|HCD45|HCD60|HCD75|HCD90|CID35,340.0481:227.9942:341.0511|227.9952:228.9989:340.0512|227.9952;227.9962:294.0545|340.048:227.9959|227.996:340.0479:104.0128|227.9961:104.013:77.0261|104.013:227.9957:77.026|104.013:77.026:76.018|104.013:76.018:77.026|340.048:227.996|227.9959:340.0479|227.9959:104.013:166.0138|104.0131:227.996:77.026|104.0131:77.026:76.0181|104.013:76.0181:77.0259|227.996:294.0542,294.05435;228.9989;227.9959;166.0138;104.013;77.026;76.01805,Athens_Univ;Eawag,EA025851|EA025852|EA025853|EA025854|EA025855|EA025858|EA025859|EA025860|EA025864,[M-H]-,CID35|HCD15|HCD30|HCD45|HCD60|HCD15|HCD30|HCD45|CID35,291.033|291.0333|291.0331|291.0332|215.0342|291.0331|291.0332|291.0335:215.0341|291.0328,291.03315;215.03415,Eawag
stpQQR838,"Dimethenamid OXA|[(2,4-dimethylthiophen-3-yl)(1-methoxypropan-2-yl)amino](oxo)acetic acid",S(C=C1C)C(C)=C1N(C(=O)C(=O)O)C(COC)C,271.0878,C12H17N1O4S1,"InChI=1S/C12H17NO4S/c1-7-6-18-9(3)10(7)13(8(2)5-17-4)11(14)12(15)16/h6,8H,5H2,1-4H3,(H,15,16)",CAS_RN: 380412-59-9,NA,HOYCASTVMCEOTP-UHFFFAOYSA-N,28290255,DTXSID4037530,Positive/Negative,AU204001|AU204002|AU204003|AU204004|AU204005;EA025901|EA025902|EA025903|EA025904|EA025905|EA025906|EA025907|EA025908|EA025909|EA025910|EA025911|EA025912|EA025913|EA025914,[M+H]+;[M+H]+,CID10|CID20|CID30|CID40|CID50;CID35|HCD15|HCD30|HCD45|HCD60|HCD75|HCD90|HCD15|HCD30|HCD45|HCD60|HCD75|HCD90|CID35,240.0689:272.0953:241.0718|240.0683:241.0718:168.0829|240.0683:126.036:168.0826|126.0365:138.0359:154.0307|126.0363:138.0362:152.0531;240.0689:226.0898:196.0793|240.0687:272.0949:226.0896|240.0688:196.0791:168.0842|240.0688:168.0841:154.0321|126.0372:111.0263:138.0373|126.0372:111.0263:138.0372|126.0372:111.0263:138.0372|240.0688:272.0952:226.0898|240.0687:196.0791:168.0841|240.0688:168.0842:154.0322|126.0372:111.0263:138.0372|126.0372:111.0263:138.0372|126.0372:111.0263:138.0372|240.0688:226.0897:196.0792,241.0718;240.0688;226.08975;196.07915;168.0841;154.0321;152.0531;138.0372;126.0372;111.0263,Athens_Univ;Eawag,EA025951|EA025952|EA025953|EA025954|EA025955|EA025956|EA025957|EA025958|EA025959|EA025960|EA025961|EA025962|EA025963|EA025964,[M-H]-,CID35|HCD15|HCD30|HCD45|HCD60|HCD75|HCD90|HCD15|HCD30|HCD45|HCD60|HCD75|HCD90|CID35,198.0959:166.0695|198.0958:166.0696:270.0803|198.0958:166.0696:164.0539|166.0697:198.0953:152.0536|166.0694:98.0069:152.0541|98.0068:150.038:152.0539|98.0067:150.0385:70.9959|198.0958:166.0695:270.0803|198.0958:166.0695:124.0224|166.0694:198.0956:152.0539|166.0692:152.0537:98.0068|98.0066:150.0382:148.0223|98.0069:148.0223:70.9959|198.0959:166.0694,270.0803;198.0958;166.0695;164.0539;152.0539;150.0382;148.0223;124.0224;98.0068;70.9959,Eawag
stpQQR839,"Dimethenamide ESA|2-[(2,4-Dimethyl-3-thienyl)(1-methoxy-2-propanyl)amino]-2-oxoethanesulfonic acid",S(C=C1C)C(C)=C1N(C(=O)CS(=O)(=O)O)C(COC)C,321.0705,C12H19N1O5S2,"InChI=1S/C12H19NO5S2/c1-8-6-19-10(3)12(8)13(9(2)5-18-4)11(14)7-20(15,16)17/h6,9H,5,7H2,1-4H3,(H,15,16,17)",CAS_RN: NA,6426850,YMYKMSAZEZQEER-UHFFFAOYSA-N,4932270,NA,Positive/Negative,AU204101|AU204102|AU204103|AU204104|AU204105;EA026001|EA026002|EA026003|EA026004|EA026005|EA026006|EA026007|EA026008|EA026009|EA026010|EA026011|EA026012|EA026013|EA026014,[M+H]+;[M+H]+,CID10|CID20|CID30|CID40|CID50;CID35|HCD15|HCD30|HCD45|HCD60|HCD75|HCD90|HCD15|HCD30|HCD45|HCD60|HCD75|HCD90|CID35,290.0505:322.0768:323.0799|290.0511:210.0935:291.0538|210.0936:290.0501:166.067|166.0671:152.0517:168.0822|152.0514:166.0663:126.0357;290.0516:210.0974|290.0518:322.0782:73.0646|290.0514:210.095:168.0842|210.0951:290.0518:166.0687|166.0687:152.053:168.0842|152.0529:166.0686:126.0372|152.0529:126.0373:152.0166|290.0513:322.0777:166.0708|290.0514:210.095:168.0842|210.0947:290.0516:166.0686|166.0686:152.0529:168.0842|152.0529:166.0685:126.0372|152.0529:126.0372:152.0165|290.0514,291.0538;290.0514;210.095;168.0842;166.0686;152.0529;152.01655;126.0372;73.0646,Athens_Univ;Eawag,EA026051|EA026052|EA026053|EA026054|EA026055|EA026056|EA026057|EA026058|EA026059|EA026060|EA026061|EA026062|EA026063|EA026064,[M-H]-,CID35|HCD15|HCD30|HCD45|HCD60|HCD75|HCD90|HCD15|HCD30|HCD45|HCD60|HCD75|HCD90|CID35,120.9601:288.0368:166.0696|320.0631|320.0629:120.96:79.9573|79.9573:120.9601:320.0626|79.9573:120.9601:76.9702|79.9573:76.9702:120.9598|79.9573:76.9702:93.9729|320.063|320.063:120.96:79.9572|79.9573:120.96:320.0626|79.9573:120.96:76.9701|79.9573:76.9702:120.96|79.9573:76.9702:93.9731|120.9601:288.0367:166.0694,320.06295;288.03675;166.0695;120.96;93.973;79.9573;76.9702,Eawag
stpQQR840,MCPA|2-(4-chloranyl-2-methyl-phenoxy)ethanoic acid,c1(c(cc(Cl)cc1)C)OCC(O)=O,200.024,C9H9ClO3,"InChI=1S/C9H9ClO3/c1-6-4-7(10)2-3-8(6)13-5-9(11)12/h2-4H,5H2,1H3,(H,11,12)",CAS_RN: 94-74-6,7204,WHKUVVPPKQRRBV-UHFFFAOYSA-N,6935,DTXSID4024195,Negative,NA,NA,NA,NA,NA,NA,SM842156;EA026151|EA026152|EA026153|EA026154|EA026155|EA026156|EA026157|EA026158|EA026159|EA026160|EA026161|EA026162|EA026163|EA026164;ML000251,[M-H]-;[M-H]-;[M-H]-,HCD35;CID35|HCD15|HCD30|HCD45|HCD60|HCD75|HCD90|HCD15|HCD30|HCD45|HCD60|HCD75|HCD90|CID35;HCD50,141.0112:199.0168:155.027;141.0114:155.0272:199.0165|199.0168:141.0113:155.0271|141.0114:199.0169:155.0269|141.0113|141.0114:121.0298|141.0113:121.0291:105.0346|141.0113:121.0294:105.0344|199.0168:141.0113:155.0268|141.0114:199.0167:155.0269|141.0113:155.0274|141.0113:121.0297|141.0113:121.0291:105.0344|141.0112|141.0114:155.0272:199.0166;199.0165:170.9853:169.9777,199.01675;170.9853;169.9777;155.02705;141.0113;121.0294;105.0344,CASMI_2016;Eawag;MetaboLights