NORMAN_ID,NAME,SMILES,NEUTRAL_EXACT_MASS,FORMULA,StdInChI,CAS_RN,PUBCHEM_CID,InChIKey,CHEMSPIDER_ID,DTXSID,Preferable Ionization,MB_Records Positive Ionization,Adduct Positive Ionization,Ionisation type and collision energy Positive Ionization,Fragments Positive Ionization,Simplified_fragments_Positive,Institute Positive Ionization,MB_Records Negative Ionization,Adduct Negative Ionization,Ionisation type and collision energy Negative Ionization,Fragments Negative Ionization,Simplified_fragments_Negative,Institute Negative Ionization
stpQQR1062,"Teflubenzuron|N-[(3,5-dichloro-2,4-difluoro-phenyl)carbamoyl]-2,6-difluoro-benzamide",Clc1cc(c(F)c(Cl)c1F)NC(=O)NC(=O)c2c(F)cccc2F,379.9742,C14H6Cl2F4N2O2,"InChI=1S/C14H6Cl2F4N2O2/c15-5-4-8(12(20)10(16)11(5)19)21-14(24)22-13(23)9-6(17)2-1-3-7(9)18/h1-4H,(H2,21,22,23,24)",CAS_RN: 83121-18-0,91734,CJDWRQLODFKPEL-UHFFFAOYSA-N,82833,DTXSID6042440,Positive/Negative,EA293101|EA293102|EA293103|EA293104|EA293105|EA293106|EA293107|EA293108|EA293109|EA293110|EA293111|EA293112|EA293113|EA293114,[M+H]+,CID35|HCD15|HCD30|HCD45|HCD60|HCD75|HCD90|HCD15|HCD30|HCD45|HCD60|HCD75|HCD90|CID35,158.041:141.0143:197.9683|380.981:158.0411|158.041:141.0147|158.0409:141.0146:195.9608|141.0144:158.0409|141.0144:141.0263:195.9611|141.0144:141.0259:195.9602|158.0409:380.9809:141.0142|158.041:141.0145:197.9675|158.0411:141.0145:195.964|141.0145:158.041:195.9646|141.0145:195.964|141.0145:141.0255:195.9604|158.041:141.0143:197.9682,197.9682;195.9611;158.041;141.0259;141.0145,Eawag,EA293153|EA293155|EA293156,[M-H]-,HCD30|HCD60|HCD75,218.0316|218.0317|218.0317,218.0317,Eawag
stpQQR1063,"Clothianidin|1-[(2-chloranyl-1,3-thiazol-5-yl)methyl]-2-methyl-3-nitro-guanidine|1-[(2-chloro-1,3-thiazol-5-yl)methyl]-2-methyl-3-nitroguanidine",Clc1ncc(s1)CN/C(=N/C)N[N+]([O-])=O,249.0087,C6H8ClN5O2S,"InChI=1S/C6H8ClN5O2S/c1-8-6(11-12(13)14)10-3-4-2-9-5(7)15-4/h2H,3H2,1H3,(H2,8,10,11)",CAS_RN: 210880-92-5,213027,PGOOBECODWQEAB-UHFFFAOYSA-N,184723,DTXSID2034465,Positive/Negative,SM845501;EA293301|EA293302|EA293303|EA293304|EA293305|EA293306|EA293307|EA293308|EA293309|EA293310|EA293311|EA293312|EA293313|EA293314,[M+H]+;[M+H]+,HCD35;CID35|HCD15|HCD30|HCD45|HCD60|HCD75|HCD90|HCD15|HCD30|HCD45|HCD60|HCD75|HCD90|CID35,131.9669:169.0542:113.0168;169.0542:168.0466:131.9671|250.0161:169.0542:131.967|169.0543:131.9669:168.0465|131.967:169.0544:113.0168|131.9671:113.0169:169.0542|131.9671:113.0168:110.0713|131.967:113.0168:110.0713|250.016:169.0541:131.9669|131.9668:169.0541:168.0464|131.9668:169.0542:113.0168|131.9668:113.0168:169.0542|131.9668:113.0167:110.0712|131.9669:113.0167:110.0712|169.0541:168.0464:131.9669,169.0542;168.04645;131.9669;113.0168;110.07125,CASMI_2016;Eawag,SM845551;EA293351|EA293352|EA293353|EA293354|EA293355|EA293356|EA293357|EA293358|EA293359|EA293360|EA293361|EA293362|EA293363,[M-H]-;[M-H]-,HCD35;CID35|HCD15|HCD30|HCD45|HCD60|HCD75|HCD90|HCD15|HCD30|HCD45|HCD60|HCD75|HCD90,165.0239:248.0014:150.0004;166.0322:111.0026:212.025|248.0009:57.9757:166.0316|57.9757:165.0237|57.9758:165.0239:248.0016|57.9756:150.0008:165.0248|57.9757|57.9757|248.0014:57.9757:166.0319|57.9757:165.0239:111.0023|57.9757:165.0243:150.0006|57.9757:195.9461:150.0004|57.9757:195.9459|57.9757,248.0014;212.025;195.946;166.0319;165.0239;150.0005;111.00245;57.9757,CASMI_2016;Eawag
stpQQR1064,"Difenoconazole|1-[[2-[2-chloranyl-4-(4-chloranylphenoxy)phenyl]-4-methyl-1,3-dioxolan-2-yl]methyl]-1,2,4-triazole",Clc4ccc(Oc1ccc(c(Cl)c1)C2(OCC(O2)C)Cn3ncnc3)cc4,405.0647,C19H17Cl2N3O3,"InChI=1S/C19H17Cl2N3O3/c1-13-9-25-19(27-13,10-24-12-22-11-23-24)17-7-6-16(8-18(17)21)26-15-4-2-14(20)3-5-15/h2-8,11-13H,9-10H2,1H3",CAS_RN: 119446-68-3,86173,BQYJATMQXGBDHF-UHFFFAOYSA-N,77730,DTXSID4032372,Positive,SM845701;EA293401|EA293402|EA293403|EA293404|EA293405|EA293406|EA293407|EA293408|EA293409|EA293410|EA293411|EA293412|EA293413|EA293414,[M+H]+;[M+H]+,HCD35;CID35|HCD15|HCD30|HCD45|HCD60|HCD75|HCD90|HCD15|HCD30|HCD45|HCD60|HCD75|HCD90|CID35,251.0025:406.0721:337.0393;337.039:251.0025:291.0334|406.0722:337.0395:251.0027|251.0026:337.0391:406.073|251.0023:264.9817:291.0338|251.0025:188.0387:223.0075|251.0028:188.0387:139.0057|139.0057:188.0386:141.0101|406.0712:337.0388|251.0023:337.0391:406.0718|251.0022:264.9815:291.0333|251.0023:188.0387:223.0075|188.0388:251.0025:139.0058|139.0057:188.0387:153.0699|337.039:251.0024:291.0337,337.0391;291.03355;264.9816;251.0025;223.0075;188.0387;153.0699;141.0101;139.0057,CASMI_2016;Eawag,NA,NA,NA,NA,NA,NA
stpQQR1065,"Methoxyfenozide|N'-tert-butyl-N'-(3,5-dimethylbenzoyl)-3-methoxy-2-methyl-benzohydrazide",O=C(c1cc(cc(c1)C)C)N(NC(=O)c2cccc(OC)c2C)C(C)(C)C,368.21,C22H28N2O3,"InChI=1S/C22H28N2O3/c1-14-11-15(2)13-17(12-14)21(26)24(22(4,5)6)23-20(25)18-9-8-10-19(27-7)16(18)3/h8-13H,1-7H3,(H,23,25)",CAS_RN: 161050-58-4,105010,QCAWEPFNJXQPAN-UHFFFAOYSA-N,94755,DTXSID3032628,Positive/Negative,EA293501|EA293502|EA293503|EA293504|EA293505|EA293506|EA293507|EA293508|EA293509|EA293510|EA293511|EA293512|EA293513|EA293514,[M+H]+,CID35|HCD15|HCD30|HCD45|HCD60|HCD75|HCD90|HCD15|HCD30|HCD45|HCD60|HCD75|HCD90|CID35,313.1539|149.0594:313.154:133.0644|149.0595:133.0646:313.1464|149.0595:133.0647:93.0695|149.0595:133.0646:91.0541|91.0541:105.0697:149.0595|91.0542:105.0698:119.0602|149.0595:313.1541:133.0646|149.0596:133.0646|149.0595:133.0646:91.0541|149.0595:133.0647:91.0542|91.0541:105.0697:149.0595|91.0541:105.0697:79.0541|313.1543:149.0591,313.154;149.0595;133.0646;119.0602;105.0697;93.0695;91.0541;79.0541,Eawag,EA293551|EA293552|EA293553|EA293554|EA293555|EA293558|EA293559|EA293560|EA293561,[M-H]-,CID35|HCD15|HCD30|HCD45|HCD60|HCD15|HCD30|HCD45|HCD60,149.0611:165.0558:204.1396|367.2012|149.0607:204.139|149.061|149.0609|367.2021:149.061|149.0608:367.2015:105.0713|149.061:367.2018|149.0608:367.2127,367.20165;204.1393;165.0558;149.06095;105.0713,Eawag
stpQQR1066,Iprovalicarb|Isopropyl (3-methyl-1-{[(1S)-1-(4-methylphenyl)ethyl]amino}-1-oxo-2-butanyl)carbamate,CC(C)OC(=O)NC(C(=O)N[C@@H](C)c1ccc(C)cc1)C(C)C,320.21,C18H28N2O3,"InChI=1S/C18H28N2O3/c1-11(2)16(20-18(22)23-12(3)4)17(21)19-14(6)15-9-7-13(5)8-10-15/h7-12,14,16H,1-6H3,(H,19,21)(H,20,22)/t14-,16?/m0/s1",CAS_RN: 140923-17-7,178565,NWUWYYSKZYIQAE-LBAUFKAWSA-N,155431,NA,Positive,EA293601|EA293602|EA293603|EA293604|EA293605|EA293606|EA293607|EA293608|EA293609|EA293610|EA293611|EA293612|EA293613|EA293614,[M+H]+,CID35|HCD15|HCD30|HCD45|HCD60|HCD75|HCD90|HCD15|HCD30|HCD45|HCD60|HCD75|HCD90|CID35,203.1391:116.0707:186.1127|119.0856:116.0708:203.1392|119.0854:116.0707:98.0601|119.0855:116.0706:98.0601|119.0855:116.0707:98.0601|119.0854:91.0542:117.0699|119.0855:91.0543:117.0699|119.0855:116.0707:203.1392|119.0855:116.0707:98.0601|119.0854:116.0707:98.06|119.0855:116.0707:98.0601|119.0855:91.0543:117.07|119.0855:91.0543:117.07|203.139:116.0706:186.1125,203.13915;186.1126;119.0855;117.06995;116.0707;98.0601;91.0543,Eawag,NA,NA,NA,NA,NA,NA
stpQQR1067,"Methiocarb| (3,5-dimethyl-4-methylsulfanyl-phenyl) N-methylcarbamate",O=C(Oc1cc(c(SC)c(c1)C)C)NC,225.0823,C11H15NO2S,"InChI=1S/C11H15NO2S/c1-7-5-9(14-11(13)12-3)6-8(2)10(7)15-4/h5-6H,1-4H3,(H,12,13)",CAS_RN: 2032-65-7,16248,YFBPRJGDJKVWAH-UHFFFAOYSA-N,15417,DTXSID3032626,Positive,SM843301;EA293701|EA293702|EA293703|EA293704|EA293705|EA293706|EA293707|EA293708|EA293709|EA293710|EA293711|EA293712|EA293713|EA293714;UF405701|UF405702|UF405703|UF405704,[M+H]+;[M+H]+;[M+H]+,HCD35;CID35|HCD15|HCD30|HCD45|HCD60|HCD75|HCD90|HCD15|HCD30|HCD45|HCD60|HCD75|HCD90|CID35;HCD55|HCD80|CID35|CID55,121.0648:169.0681:122.0726;169.0683:121.0649:122.0727|169.0682:121.065:226.0898|169.0681:121.0649:122.0725|121.0648:169.0684:122.0727|121.0649:122.0727:93.07|121.0649:122.0727:93.07|121.0649:107.0492:122.0726|169.0682:121.0649:226.0897|169.0681:121.0647:122.0726|121.0649:169.0683:122.0727|121.0649:122.0726:93.07|121.0648:122.0726:93.07|121.0649:107.0492:122.0727|169.0684:121.065:122.0723;121.0646:122.0725:91.0542|121.0647:122.0725:91.0542|169.068:121.0647:148.0755|169.0681:121.0648:148.0757,169.0682;148.0756;122.0726;121.0649;107.0492;93.07;91.0542,CASMI_2016;Eawag;UFZ,NA,NA,NA,NA,NA,NA
stpQQR1068,Boscalid|2-chloranyl-N-[2-(4-chlorophenyl)phenyl]pyridine-3-carboxamide,c1ccc(c(c1)c2ccc(cc2)Cl)NC(=O)c3cccnc3Cl,342.0327,C18H12Cl2N2O,"InChI=1S/C18H12Cl2N2O/c19-13-9-7-12(8-10-13)14-4-1-2-6-16(14)22-18(23)15-5-3-11-21-17(15)20/h1-11H,(H,22,23)",CAS_RN: 188425-85-6,213013,WYEMLYFITZORAB-UHFFFAOYSA-N,184713,DTXSID6034392,Positive/Negative,SM843603;EA293801|EA293802|EA293803|EA293804|EA293805|EA293806|EA293807|EA293808|EA293809|EA293810|EA293811|EA293812|EA293813|EA293814;UF406001|UF406002|UF406003|UF406004,[M+H]+;[M+H]+;[M+H]+,HCD35;CID35|HCD15|HCD30|HCD45|HCD60|HCD75|HCD90|HCD15|HCD30|HCD45|HCD60|HCD75|HCD90|CID35;HCD55|HCD80|CID35|CID55,307.0633:343.0401:139.9897;307.0631:139.9899:111.995|343.0399:307.0638:139.9896|307.0636:343.04:139.9898|307.0634:271.0867:272.0945|272.0946:271.0869:307.0634|271.0867:272.0944:243.0919|271.0867:243.0919:78.0339|343.0398:307.0633:139.9898|307.0631:343.0402:139.9899|307.0631:271.0868:272.0946|272.0947:271.0869:307.0634|271.0869:272.0946:243.0919|271.0867:243.0918:111.9949|307.0633:139.9899:111.995;307.0634:272.0945:271.0867|271.0866:272.0945:243.0918|307.0632:139.9898:111.9948|307.0632:139.9898:111.9948,307.0633;272.09455;271.0867;243.0919;139.9898;111.9949;78.0339,CASMI_2016;Eawag;UFZ,EA293852|EA293858;UF406051|UF406053|UF406054,[M-H]-;[M-H]-,HCD15|HCD15;HCD55|CID35|CID55,341.0249|341.0244:204.0201;197.9525|197.9515:228.0213:111.9958|228.0222:111.9961,341.02465;228.02175;204.0201;197.952;111.99595,Eawag;UFZ
stpQQR1069,Imazamox| 2-(4-isopropyl-5-keto-4-methyl-2-imidazolin-2-yl)-5-(methoxymethyl)nicotinic acid,O=C(O)c1c(ncc(c1)COC)/C2=N/C(C(=O)N2)(C(C)C)C,305.1376,C15H19N3O4,"InChI=1S/C15H19N3O4/c1-8(2)15(3)14(21)17-12(18-15)11-10(13(19)20)5-9(6-16-11)7-22-4/h5-6,8H,7H2,1-4H3,(H,19,20)(H,17,18,21)",CAS_RN: 114311-32-9,86137,NUPJIGQFXCQJBK-UHFFFAOYSA-N,77711,DTXSID3034664,Positive/Negative,EA293901|EA293902|EA293903|EA293904|EA293905|EA293906|EA293907|EA293908|EA293909|EA293910|EA293911|EA293912|EA293913|EA293914,[M+H]+,CID35|HCD15|HCD30|HCD45|HCD60|HCD75|HCD90|HCD15|HCD30|HCD45|HCD60|HCD75|HCD90|CID35,264.0981:261.1238:278.1502|306.1445:261.1314:264.1094|306.1445:264.0979:278.1499|261.1235:246.0875:193.0608|193.0608:86.0965:246.0874|163.0503:86.0965:193.0607|163.0502:86.0964:145.0396|306.1445|306.1445:264.0979:278.15|261.1235:246.0875:193.0609|193.0609:86.0965:246.0874|163.0502:86.0965:193.0607|163.0501:86.0964:145.0396|264.0978:261.1235:278.1501,278.15005;264.1094;264.0979;261.1235;246.08745;193.0608;163.0502;145.0396;86.0965,Eawag,EA293951|EA293952|EA293953|EA293954|EA293955|EA293956|EA293957|EA293958|EA293959|EA293960|EA293961|EA293962|EA293963,[M-H]-,CID35|HCD15|HCD30|HCD45|HCD60|HCD75|HCD90|HCD15|HCD30|HCD45|HCD60|HCD75|HCD90,260.1409:217.0867|260.1407:304.1309|260.1408:217.0861:304.1298|217.0861:186.0666:260.1377|186.0675:217.0856:260.1293|186.0673:117.0457|186.0675:117.046:304.1315|260.14:304.1302|260.1403:217.0856|217.0859:186.0677|186.0673:217.086|186.0674:117.0458:260.129|186.0672:117.0459,304.13055;260.14015;217.086;186.06735;117.04585,Eawag
stpQQR1070,Fenoxycarb| N-[2-(4-phenoxyphenoxy)ethyl]carbamic acid ethyl ester,O=C(OCC)NCCOc2ccc(Oc1ccccc1)cc2,301.1314,C17H19NO4,"InChI=1S/C17H19NO4/c1-2-20-17(19)18-12-13-21-14-8-10-16(11-9-14)22-15-6-4-3-5-7-15/h3-11H,2,12-13H2,1H3,(H,18,19)",CAS_RN: 72490-01-8,51605,HJUFTIJOISQSKQ-UHFFFAOYSA-N,46739,DTXSID7032393,Positive,SM846001;EA294001|EA294002|EA294003|EA294004|EA294005|EA294006|EA294007|EA294008|EA294009|EA294010|EA294011|EA294012|EA294013|EA294014,[M+H]+;[M+H]+,HCD35;CID35|HCD15|HCD30|HCD45|HCD60|HCD75|HCD90|HCD15|HCD30|HCD45|HCD60|HCD75|HCD90|CID35,88.0393:116.0707:256.0969;116.0706:256.0969:88.0394|302.1386:116.0707:88.0393|88.0393:116.0707:256.0968|88.0392:116.0706:256.0967|88.0393:116.0706:70.0288|88.0394:70.0288:141.07|88.0394:115.0542:70.0288|116.0706:302.1388:88.0394|88.0394:116.0707:256.0971|88.0393:116.0706:256.0969|88.0393:116.0707:70.0288|88.0393:70.0288:129.0699|88.0393:115.0542:70.0287|116.0706:256.0969:88.0394,256.0969;141.07;129.0699;116.0706;115.0542;88.0393;70.0288,CASMI_2016;Eawag,NA,NA,NA,NA,NA,NA
stpQQR1071,"Thiamethoxam|3-((2-Chloro-5-thiazolyl)methyl)tetrahydro-5-methyl-N-nitro-4H-1,3,5-oxadiazin-4-imine",Clc1ncc(s1)CN2\C(=N\[N+]([O-])=O)N(C)COC2,291.0193,C8H10ClN5O3S,"InChI=1S/C8H10ClN5O3S/c1-12-4-17-5-13(8(12)11-14(15)16)3-6-2-10-7(9)18-6/h2H,3-5H2,1H3/b11-8+",CAS_RN: 153719-23-4,107646,NWWZPOKUUAIXIW-DHZHZOJOSA-N,96828,NA,Positive,SM847101;EA294101|EA294102|EA294103|EA294104|EA294105|EA294106|EA294107|EA294108|EA294109|EA294110|EA294111|EA294112|EA294113|EA294114,[M+H]+;[M+H]+,HCD35;CID35|HCD15|HCD30|HCD45|HCD60|HCD75|HCD90|HCD15|HCD30|HCD45|HCD60|HCD75|HCD90|CID35,211.0648:131.9669:181.0542;211.0647:210.0571:246.0337|211.065:292.0264:210.057|211.0651:131.9671:181.0543|131.9671:181.0544:211.0651|131.967:181.0542:152.0277|131.967:152.0277:108.0557|131.9669:108.0556:152.0276|211.0647:292.0265:210.0571|211.0646:131.9669:181.0542|131.9668:181.0542:211.0648|131.9668:181.0542:152.0277|131.9668:152.0276:108.0556|131.9669:108.0556:152.0275|211.0646:210.057:246.0335,246.0336;211.0648;210.05705;181.0542;152.02765;131.9669;108.0556,CASMI_2016;Eawag,NA,NA,NA,NA,NA,NA
stpQQR1072,Methomyl| (1E)-N-(methylcarbamoyloxy)ethanimidothioic acid methyl ester,C/C(=N\OC(=O)NC)SC,162.0463,C5H10N2O2S,"InChI=1S/C5H10N2O2S/c1-4(10-3)7-9-5(8)6-2/h1-3H3,(H,6,8)/b7-4+",CAS_RN: 16752-77-5,4109,UHXUZOCRWCRNSJ-QPJJXVBHSA-N,3966,NA,Positive,EA294201|EA294202|EA294203|EA294204|EA294205|EA294206|EA294207|EA294208|EA294209|EA294210|EA294211|EA294212|EA294213|EA294214,[M+H]+,CID35|HCD15|HCD30|HCD45|HCD60|HCD75|HCD90|HCD15|HCD30|HCD45|HCD60|HCD75|HCD90|CID35,122.0271:88.0216:65.0056|88.0216:106.0321:65.0055|88.0215:106.0322:65.0056|88.0216:106.0322:58.0288|88.0216:106.0321:72.9981|88.0216:72.9981:106.0321|72.9981:88.0216:106.0321|88.0216:106.0322:65.0056|88.0215:106.0321:65.0056|88.0215:106.0321:58.0287|88.0215:106.0322:72.9981|88.0215:106.0321:72.9981|72.998:88.0215:58.0287|122.027:88.0215:65.0055,122.02705;106.0321;88.02155;72.9981;65.0056;58.0287,Eawag,NA,NA,NA,NA,NA,NA
stpQQR1073,Flonicamid|N-(cyanomethyl)-4-(trifluoromethyl)-3-pyridinecarboxamide,O=C(NCC#N)c1cnccc1C(F)(F)F,229.0463,C9H6F3N3O,"InChI=1S/C9H6F3N3O/c10-9(11,12)7-1-3-14-5-6(7)8(16)15-4-2-13/h1,3,5H,4H2,(H,15,16)",CAS_RN: 158062-67-0,9834513,RLQJEEJISHYWON-UHFFFAOYSA-N,8010234,DTXSID8034611,Positive/Negative,EA294301|EA294302|EA294303|EA294304|EA294305|EA294306|EA294307|EA294308|EA294309|EA294310|EA294311|EA294312|EA294313|EA294314,[M+H]+,CID35|HCD15|HCD30|HCD45|HCD60|HCD75|HCD90|HCD15|HCD30|HCD45|HCD60|HCD75|HCD90|CID35,203.0427:174.0162:176.0319|230.0533|230.0533:203.0428:174.016|203.0428:230.0538:174.0162|148.0369:203.0428:174.0162|148.0368:176.0317:146.0212|148.0368:98.0401:146.0212|230.0535:203.0425:174.0165|230.0534:203.0428:174.0162|203.0427:230.0537:174.0162|148.0368:203.0428:174.0162|148.0368:176.0318:146.0213|148.0368:98.0401:146.0212|203.0427:174.0161:176.0316,203.0428;176.03175;174.0162;148.0368;146.0212;98.0401,Eawag,EA294352|EA294354|EA294358|EA294359|EA294361,[M-H]-,HCD15|HCD45|HCD15|HCD30|HCD60,228.0395|228.0506:146.0226|228.039|228.0393|228.0509:146.0224,228.0393;146.0225,Eawag
stpQQR1074,"Dimethomorph|(Z)-3-(4-chlorophenyl)-3-(3,4-dimethoxyphenyl)-1-(4-morpholinyl)-2-propen-1-one",COC1=C(C=C(C=C1)/C(=C/C(=O)N2CCOCC2)/C3=CC=C(C=C3)Cl)OC,387.1237,C21H22ClNO4,"InChI=1S/C21H22ClNO4/c1-25-19-8-5-16(13-20(19)26-2)18(15-3-6-17(22)7-4-15)14-21(24)23-9-11-27-12-10-23/h3-8,13-14H,9-12H2,1-2H3/b18-14+",CAS_RN: 110488-70-5,86298,QNBTYORWCCMPQP-NBVRZTHBSA-N,77841,DTXSID10150323,Positive,EA294401|EA294402|EA294403|EA294404|EA294405|EA294406|EA294407|EA294408|EA294409|EA294410|EA294411|EA294412|EA294413|EA294414,[M+H]+,CID35|HCD15|HCD30|HCD45|HCD60|HCD75|HCD90|HCD15|HCD30|HCD45|HCD60|HCD75|HCD90|CID35,301.0622:165.0546|388.1312:301.0617|301.0626:388.1302:114.055|301.063:165.0548:273.0678|165.0548:138.9947:273.0678|165.0548:242.0493:138.9946|227.0259:152.0621:199.0309|388.1305:301.0625|301.0623:388.1312:114.055|301.0625:165.0547:273.0677|165.0546:138.9946:242.0493|165.0547:242.0493:138.9945|227.0257:152.062:199.0308|301.0624:165.0547,301.06245;273.0678;242.0493;227.0258;199.03085;165.0547;152.06205;138.9946;114.055,Eawag,NA,NA,NA,NA,NA,NA
stpQQR1075,Propamocarb| N-[3-(dimethylamino)propyl]carbamic acid propyl ester,N(C(OCCC)=O)CCCN(C)C,188.1525,C9H20N2O2,"InChI=1S/C9H20N2O2/c1-4-8-13-9(12)10-6-5-7-11(2)3/h4-8H2,1-3H3,(H,10,12)",CAS_RN: 24579-73-5,32490,WZZLDXDUQPOXNW-UHFFFAOYSA-N,30114,DTXSID1040295,Positive,EA294501|EA294502|EA294503|EA294504|EA294505|EA294506|EA294507|EA294508|EA294509|EA294510|EA294511|EA294512|EA294513|EA294514,[M+H]+,CID35|HCD15|HCD30|HCD45|HCD60|HCD75|HCD90|HCD15|HCD30|HCD45|HCD60|HCD75|HCD90|CID35,144.1019:102.055:147.1128|189.1597:144.1021:102.0546|189.1597:102.0551:144.102|102.0549:189.1597:144.1019|102.0549:74.0237:144.1018|102.0549:74.0237:58.0651|102.055:74.0237:58.0651|189.1595:144.1019:102.055|189.1597:102.055:144.102|102.0549:189.1598:144.1019|102.0549:74.0237:144.1019|102.0549:74.0237:58.0651|102.0549:74.0237:58.0651|144.1019:102.0549:147.1128,147.1128;144.1019;102.0549;74.0237;58.0651,Eawag,NA,NA,NA,NA,NA,NA
stpQQR1076,"Triclopyr| 2-(3,5,6-trichloropyridin-2-yl)oxyacetic acid",ClC1=C(OCC(O)=O)N=C(Cl)C(Cl)=C1,254.9257,C7H4Cl3NO3,"InChI=1S/C7H4Cl3NO3/c8-3-1-4(9)7(11-6(3)10)14-2-5(12)13/h1H,2H2,(H,12,13)",CAS_RN: 55335-06-3,41428,REEQLXCGVXDJSQ-UHFFFAOYSA-N,37801,DTXSID0032497,Positive,EA294601|EA294602|EA294603|EA294604|EA294605|EA294606|EA294607|EA294608|EA294609|EA294610|EA294611|EA294612|EA294613|EA294614,[M+H]+,CID35|HCD15|HCD30|HCD45|HCD60|HCD75|HCD90|HCD15|HCD30|HCD45|HCD60|HCD75|HCD90|CID35,237.9225:209.9274:197.9274|255.933:237.9224:209.9273|209.9275:197.9274:237.9224|209.9275:181.9326:197.9275|145.9559:163.9665:181.9326|145.9559:179.917:163.9664|179.9168:145.9558:109.9791|255.933:237.9222:209.9274|209.9274:197.9274:237.9221|209.9274:181.9324:197.9273|145.9558:163.9664:181.9325|179.9168:145.9558:163.9663|179.9168:145.9558:109.9791|237.9224:209.9273:197.9274,237.9224;209.9274;197.9274;181.93255;179.9168;163.9664;145.9558;109.9791,Eawag,NA,NA,NA,NA,NA,NA