NORMAN_ID,NAME,SMILES,NEUTRAL_EXACT_MASS,FORMULA,StdInChI,CAS_RN,PUBCHEM_CID,InChIKey,CHEMSPIDER_ID,DTXSID,Preferable Ionization,MB_Records Positive Ionization,Adduct Positive Ionization,Ionisation type and collision energy Positive Ionization,Fragments Positive Ionization,Simplified_fragments_Positive,Institute Positive Ionization,MB_Records Negative Ionization,Adduct Negative Ionization,Ionisation type and collision energy Negative Ionization,Fragments Negative Ionization,Simplified_fragments_Negative,Institute Negative Ionization
stpQQR776,Desmedipham|N-[3-[anilino(oxo)methoxy]phenyl]carbamic acid ethyl ester,c1c(OC(Nc2ccccc2)=O)cccc1NC(OCC)=O,300.1105,C16H16N2O4,"InChI=1S/C16H16N2O4/c1-2-21-15(19)18-13-9-6-10-14(11-13)22-16(20)17-12-7-4-3-5-8-12/h3-11H,2H2,1H3,(H,17,20)(H,18,19)",CAS_RN: 13684-56-5,24743,WZJZMXBKUWKXTQ-UHFFFAOYSA-N,23133,DTXSID0034518,Positive,AU373801|AU373802|AU373803|AU373804|AU373805;EA014401|EA014402|EA014403|EA014404|EA014405|EA014406|EA014407|EA014408|EA014409|EA014410|EA014411|EA014412|EA014413|EA014414,[M+H]+;[M+H]+,CID10|CID20|CID30|CID40|CID50;CID35|HCD15|HCD30|HCD45|HCD60|HCD75|HCD90|HCD15|HCD30|HCD45|HCD60|HCD75|HCD90|CID35,182.0802:136.0383:183.083|136.0385:154.0491:182.0799|136.0383:154.0486:182.0797|136.0384:154.0487:137.0411|136.0383:137.0422:154.0486;182.0813:136.0393:154.0497|182.0811:136.0393:154.0499|136.0392:154.0498:182.081|136.0393:154.0499:108.0444|136.0393:108.0443:154.0499|136.0393:108.0444:121.0395|108.0443:65.0385:121.0395|182.0812:136.0393:154.0499|136.0392:154.0498:182.0811|136.0392:154.0498:108.0443|136.0392:108.0443:154.0498|136.0393:108.0443:121.0395|108.0443:121.0396:65.0385|182.0812:136.0392:154.0497,183.083;182.0811;154.0498;137.04165;136.0392;121.0395;108.0443;65.0385,Athens_Univ;Eawag,NA,NA,NA,NA,NA,NA
stpQQR777,"Fenpropimorph|(2S,6R)-4-[3-(4-tert-butylphenyl)-2-methyl-propyl]-2,6-dimethyl-morpholine",CC1CN(CC(O1)C)CC(C)CC2=CC=C(C=C2)C(C)(C)C,303.2557,C20H33NO,"InChI=1S/C20H33NO/c1-15(12-21-13-16(2)22-17(3)14-21)11-18-7-9-19(10-8-18)20(4,5)6/h7-10,15-17H,11-14H2,1-6H3/t15?,16-,17+",CAS_RN: 67306-03-0,93365,RYAUSSKQMZRMAI-ALOPSCKCSA-N,84290,DTXSID4034601,Positive,SM840601;EA014601|EA014602|EA014603|EA014604|EA014605|EA014606|EA014607|EA014608|EA014609|EA014610|EA014611|EA014612|EA014613|EA014614,[M+H]+;[M+H]+,HCD35;CID35|HCD15|HCD30|HCD45|HCD60|HCD75|HCD90|HCD15|HCD30|HCD45|HCD60|HCD75|HCD90|CID35,304.2637:147.1168:130.1227;130.1226:147.1168:116.1069|304.2634|304.2634|304.2632:147.1168:130.1226|147.1169:98.0964:304.2631|147.1169:132.0934:98.0965|132.0933:117.0698:119.0855|304.2634:147.1172|304.2634|304.2634:147.1168:130.1226|147.1168:304.2644:98.0964|147.1168:132.0933:119.0855|132.0933:117.0698:147.1168|130.1226:147.1168:116.107,147.1168;132.0933;130.1226;119.0855;117.0698;116.10695;98.0964,CASMI_2016;Eawag,NA,NA,NA,NA,NA,NA
stpQQR778,Fluazifop| 2-[4-[5-(trifluoromethyl)pyridin-2-yl]oxyphenoxy]propanoic acid,CC(C(=O)O)OC1=CC=C(C=C1)OC2=NC=C(C=C2)C(F)(F)F,327.0724,C15H12F3NO4,"InChI=1S/C15H12F3NO4/c1-9(14(20)21)22-11-3-5-12(6-4-11)23-13-7-2-10(8-19-13)15(16,17)18/h2-9H,1H3,(H,20,21)",CAS_RN: 69335-91-7,91701,YUVKUEAFAVKILW-UHFFFAOYSA-N,82803,DTXSID3058163,Positive/Negative,EA014701|EA014702|EA014703|EA014704|EA014705|EA014706|EA014707|EA014708|EA014709|EA014710|EA014711|EA014712|EA014713|EA014714,[M+H]+,CID35|HCD15|HCD30|HCD45|HCD60|HCD75|HCD90|HCD15|HCD30|HCD45|HCD60|HCD75|HCD90|CID35,282.0737:256.0578:255.05|328.079|328.0788:282.0735:255.05|282.0735:254.0786:255.05|238.0473:91.0543:254.0423|238.0473:91.0543:254.0424|254.0422:91.0542:164.0317|328.0791:282.0747|328.0789:282.0736:255.0499|282.0736:254.0786:255.05|238.0474:91.0542:254.0423|238.0474:91.0543:254.0423|254.0422:91.0542:164.0318|282.0735:256.0577:255.0499,282.0736;256.05775;255.05;254.0786;254.0423;238.04735;164.03175;91.05425,Eawag,EA014751|EA014752|EA014753|EA014754|EA014755|EA014756|EA014757|EA014758|EA014759|EA014760|EA014761|EA014762|EA014763|EA014764,[M-H]-,CID35|HCD15|HCD30|HCD45|HCD60|HCD75|HCD90|HCD15|HCD30|HCD45|HCD60|HCD75|HCD90|CID35,254.0434:282.0748:162.016|254.0435:326.0644:71.0139|254.0433:226.0488:71.0138|254.0432:226.048:206.0419|226.0482:254.0431:206.0421|108.0216:206.042:162.0172|108.0216:162.0172:158.0409|254.0432:326.0643:71.0138|254.0433:226.0483:71.0138|254.0433:226.0483:212.0327|226.0484:254.0433:108.0215|108.0216:206.0419:162.0171|108.0215:162.0171:158.041|254.0434:282.0743:253.0355,326.06435;282.07455;254.0433;253.0355;226.0483;212.0327;206.04195;162.0171;158.04095;108.0216;71.0138,Eawag
stpQQR779,Cyprodinil|(4-cyclopropyl-6-methyl-pyrimidin-2-yl)-phenyl-amine,c1ccccc1Nc1nc(C2CC2)cc(C)n1,225.126,C14H15N3,"InChI=1S/C14H15N3/c1-10-9-13(11-7-8-11)17-14(15-10)16-12-5-3-2-4-6-12/h2-6,9,11H,7-8H2,1H3,(H,15,16,17)",CAS_RN: 121552-61-2,86367,HAORKNGNJCEJBX-UHFFFAOYSA-N,77885,DTXSID1032359,Positive,EA014801|EA014802|EA014803|EA014804|EA014805|EA014806|EA014807|EA014808|EA014809|EA014810|EA014811|EA014812|EA014813|EA014814,[M+H]+,CID35|HCD15|HCD30|HCD45|HCD60|HCD75|HCD90|HCD15|HCD30|HCD45|HCD60|HCD75|HCD90|CID35,226.134:210.1025:144.0808|226.134|226.1342|226.134:108.0808:133.0759|226.1342:108.0808:133.0761|226.1344:108.0808:93.0573|93.0573:226.1348:108.0808|226.1339|226.134|226.1339:108.0808:185.1074|226.1341:108.0809:133.0761|226.1341:108.0808:93.0574|93.0573:108.0808:91.0542|226.1339:210.1025:185.1073,210.1025;185.10735;144.0808;133.0761;108.0808;93.0573;91.0542,Eawag,NA,NA,NA,NA,NA,NA
stpQQR780,"Trinexapac|4-[Cyclopropyl(hydroxy)methylene]-3,5-dioxocyclohexanecarboxylic acid",C(C1)C1C(O)=C(C(=O)CC2C(=O)O)C(=O)C2,224.0685,C11H12O5,"InChI=1S/C11H12O5/c12-7-3-6(11(15)16)4-8(13)9(7)10(14)5-1-2-5/h5-6,14H,1-4H2,(H,15,16)/b10-9-",CAS_RN: 104273-73-6,14371531,DFFWZNDCNBOKDI-KTKRTIGZSA-N,10469309,DTXSID90559517,Positive/Negative,EA015001|EA015002|EA015003|EA015004|EA015005|EA015006|EA015007|EA015008|EA015009|EA015010|EA015011|EA015012|EA015013|EA015014,[M+H]+,CID35|HCD15|HCD30|HCD45|HCD60|HCD75|HCD90|HCD15|HCD30|HCD45|HCD60|HCD75|HCD90|CID35,157.0496:139.039:207.0653|225.0758:69.0335:139.039|225.0755:69.0335:111.044|69.0335:111.0441:165.0183|69.0335:111.044:85.0284|85.0285:69.0336:111.0441|85.0284:69.0335:99.0076|225.0758:69.0335:139.039|225.0758:69.0335:111.044|69.0335:111.044:165.0182|69.0335:111.044:85.0284|85.0284:69.0335:111.044|85.0284:69.0335:99.0077|157.0496:139.039:207.0653,207.0653;165.01825;157.0496;139.039;111.044;99.00765;85.0284;69.0335,Eawag,EA015051|EA015052|EA015053|EA015054|EA015055|EA015057|EA015058|EA015059|EA015060|EA015061|EA015062,[M-H]-,CID35|HCD15|HCD30|HCD45|HCD60|HCD90|HCD15|HCD30|HCD45|HCD60|HCD75,135.0821:179.0717:205.0508|223.0614:179.0712:135.0815|223.0613:135.0816:179.0716|135.0815:179.0714:223.0615|179.0716:135.0816:83.0503|111.0453|223.0614:179.0713|223.0614:135.0818:179.0713|179.0714:135.0815:223.0616|179.0716:135.0815:161.0608|111.0453:83.0504:135.0812,223.0614;205.0508;179.0714;161.0608;135.0815;111.0453;83.05035,Eawag
stpQQR781,"Trinexapac-ethyl|4-[cyclopropyl(hydroxy)methylene]-3,5-diketo-cyclohexanecarboxylic acid ethyl ester",CCOC(=O)C1CC(=O)C(=C(C2CC2)O)C(=O)C1,252.0992,C13H16O5,"InChI=1S/C13H16O5/c1-2-18-13(17)8-5-9(14)11(10(15)6-8)12(16)7-3-4-7/h7-8,16H,2-6H2,1H3/b12-11-",CAS_RN: 95266-40-3,92421,RVKCCVTVZORVGD-QXMHVHEDSA-N,83439,DTXSID9032535,Positive,EA015101|EA015102|EA015103|EA015104|EA015105|EA015106|EA015107|EA015108|EA015109|EA015110|EA015111|EA015112|EA015113|EA015114,[M+H]+,CID35|HCD15|HCD30|HCD45|HCD60|HCD75|HCD90|HCD15|HCD30|HCD45|HCD60|HCD75|HCD90|CID35,207.0652:185.0809:179.0702|253.107:207.0651:185.0808|207.0652:69.0335:253.1069|69.0335:165.0182:139.0389|69.0335:137.0233:139.0389|69.0335:68.9971:111.044|69.0334:68.997:111.0439|253.1071:207.0652:185.0809|207.0652:69.0335:253.107|69.0335:165.0183:139.039|69.0335:137.0232:139.0389|69.0335:68.9971:111.044|69.0335:68.9971:111.044|207.0652:185.0809:179.0702,207.0652;185.0809;179.0702;165.01825;139.0389;137.02325;111.044;69.0335;68.9971,Eawag,NA,NA,NA,NA,NA,NA
stpQQR782,Kresoxim-methyl|Methyl (E)-alpha-(methoxyimino)-2-((2-methylphenoxy)methyl)benzeneacetic acid,Cc1ccccc1OCc1ccccc1\C(=N/OC)C(=O)OC,313.1309,C18H19NO4,"InChI=1S/C18H19NO4/c1-13-8-4-7-11-16(13)23-12-14-9-5-6-10-15(14)17(19-22-3)18(20)21-2/h4-11H,12H2,1-3H3/b19-17+",CAS_RN: 143390-89-0,6112114,ZOTBXTZVPHCKPN-HTXNQAPBSA-N,4813314,DTXSID2032558,Positive,EA015401|EA015402|EA015403|EA015404|EA015405|EA015406|EA015407|EA015408|EA015409|EA015410|EA015411|EA015412|EA015413|EA015414,[M+H]+,CID35|HCD15|HCD30|HCD45|HCD60|HCD75|HCD90|HCD15|HCD30|HCD45|HCD60|HCD75|HCD90|CID35,267.1011:282.112:206.081|222.091:116.0496:282.1128|222.091:116.0494:131.0729|116.0493:131.0729:222.0909|131.0729:116.0493:194.0962|116.0491:131.0727:89.0384|116.0494:89.0384:131.0733|222.0911:116.0493:132.0807|222.0911:131.0728:116.0494|131.0728:222.0908:116.0494|116.0493:131.0729:222.0911|131.0729:116.0493:130.065|116.0493:89.0385:130.065|267.101:282.1119:206.0808,282.112;267.10105;222.091;206.0809;194.0962;132.0807;131.0729;130.065;116.0493;89.0384,Eawag,NA,NA,NA,NA,NA,NA
stpQQR783,Asulam|N-(4-aminophenyl)sulfonylcarbamic acid methyl ester,c1(S(NC(OC)=O)(=O)=O)ccc(N)cc1,230.0356,C8H10N2O4S1,"InChI=1S/C8H10N2O4S/c1-14-8(11)10-15(12,13)7-4-2-6(9)3-5-7/h2-5H,9H2,1H3,(H,10,11)",CAS_RN: 3337-71-1,18752,VGPYEHKOIGNJKV-UHFFFAOYSA-N,17707,DTXSID8023890,Positive/Negative,EA015601|EA015602|EA015603|EA015604|EA015605|EA015606|EA015607|EA015608|EA015609|EA015610|EA015611|EA015612|EA015613|EA015614,[M+H]+,CID35|HCD15|HCD30|HCD45|HCD60|HCD75|HCD90|HCD15|HCD30|HCD45|HCD60|HCD75|HCD90|CID35,156.0114:188.0375:108.0443|156.0114:231.0433:108.0443|156.0113:108.0443:92.0494|108.0444:156.0114:92.0495|108.0443:92.0495:65.0385|92.0495:108.0443:65.0385|92.0495:65.0386:108.0444|156.0114:231.0433:108.0444|156.0115:108.0444:92.0495|108.0443:156.0114:92.0494|108.0444:92.0495:65.0385|92.0494:108.0443:65.0385|92.0495:65.0386:108.0444|156.0114:188.0375:108.0443,188.0375;156.0114;108.0443;92.0495;65.0385,Eawag,EA015651|EA015652|EA015653|EA015654|EA015655|EA015658|EA015659|EA015660|EA015661|EA015664,[M-H]-,CID35|HCD15|HCD30|HCD45|HCD60|HCD15|HCD30|HCD45|HCD60|CID35,197.0029:133.0408|229.0288|229.0289:197.0026:133.0402|197.0026:229.0289:133.0412|197.0024|229.0288|229.0287:197.0024:133.0403|197.0026:229.0286|197.002|197.0027:133.0405,229.0288;197.0026;133.0405,Eawag
stpQQR784,"Atraton|4-N-ethyl-6-methoxy-2-N-propan-2-yl-1,3,5-triazine-2,4-diamine",COc1nc(NCC)nc(NC(C)C)n1,211.1428,C9H17N5O,"InChI=1S/C9H17N5O/c1-5-10-7-12-8(11-6(2)3)14-9(13-7)15-4/h6H,5H2,1-4H3,(H2,10,11,12,13,14)",CAS_RN: 1610-17-9,15359,PXWUKZGIHQRDHL-UHFFFAOYSA-N,14620,DTXSID0037493,Positive,EA015701|EA015702|EA015703|EA015704|EA015705|EA015706|EA015707|EA015708|EA015709|EA015710|EA015711|EA015712|EA015713|EA015714,[M+H]+,CID35|HCD15|HCD30|HCD45|HCD60|HCD75|HCD90|HCD15|HCD30|HCD45|HCD60|HCD75|HCD90|CID35,170.1038:212.1513:114.0662|212.1505|212.1505:170.1035|212.1506:170.1038:96.0556|170.1037:212.1504:100.0506|170.1036:100.0505:142.0723|100.0506:68.0243:69.0083|212.1505:170.1033|212.1507:170.1037|212.1507:170.1038:96.0557|170.1037:212.1506:100.0506|170.1036:100.0506:142.0723|100.0505:68.0243:69.0083|170.1037:212.1505:114.0661,170.1037;142.0723;114.06615;100.0506;96.05565;69.0083;68.0243,Eawag,NA,NA,NA,NA,NA,NA
stpQQR785,"Linuron|3-(3,4-dichlorophenyl)-1-methoxy-1-methyl-urea",c1(cc(c(Cl)cc1)Cl)NC(N(OC)C)=O,248.0114,C9H10Cl2N2O2,"InChI=1S/C9H10Cl2N2O2/c1-13(15-2)9(14)12-6-3-4-7(10)8(11)5-6/h3-5H,1-2H3,(H,12,14)",CAS_RN: 330-55-2,9502,XKJMBINCVNINCA-UHFFFAOYSA-N,9130,DTXSID2024163,Positive,SM841202;EA016001|EA016002|EA016003|EA016004|EA016005|EA016006|EA016007|EA016008|EA016009|EA016010|EA016011|EA016012|EA016013|EA016014;UF403101|UF403102|UF403103|UF403104,[M+H]+;[M+H]+;[M+H]+,HCD35;CID35|HCD15|HCD30|HCD45|HCD60|HCD75|HCD90|HCD15|HCD30|HCD45|HCD60|HCD75|HCD90|CID35;HCD55|HCD80|CID35|CID55,159.9716:182.0241:249.0193;182.0243:159.9716:187.9664|249.0193:182.0243:159.9715|159.9715:182.0241:249.0189|159.9716:182.0242:160.9793|159.9716:160.9793:182.0241|132.9606:159.9716:160.9794|132.9606:160.9793:125.0026|249.0193:182.0241:159.9715|159.9716:182.0242:249.0191|159.9716:182.0242:160.9793|159.9715:160.9793:182.0241|132.9606:159.9714:160.9793|132.9606:160.9793:125.0026|182.0241:159.9715:187.9663;159.9715:182.0242:160.9794|132.9606:160.9794:125.0027|182.0241:159.9715:187.9664|182.024:159.9715:187.9665,187.9664;182.0241;160.9793;159.9715;132.9606;125.0026,CASMI_2016;Eawag;UFZ,NA,NA,NA,NA,NA,NA
stpQQR786,"Monuron|3-(4-chlorophenyl)-1,1-dimethyl-urea",C(N(C)C)(Nc1ccc(Cl)cc1)=O,198.0554,C9H11ClN2O,"InChI=1S/C9H11ClN2O/c1-12(2)9(13)11-8-5-3-7(10)4-6-8/h3-6H,1-2H3,(H,11,13)",CAS_RN: 150-68-5,8800,BMLIZLVNXIYGCK-UHFFFAOYSA-N,8470,DTXSID0020311,Positive/Negative,EA016101|EA016102|EA016103|EA016104|EA016105|EA016106|EA016107|EA016108|EA016109|EA016110|EA016111|EA016112|EA016113|EA016114,[M+H]+,CID35|HCD15|HCD30|HCD45|HCD60|HCD75|HCD90|HCD15|HCD30|HCD45|HCD60|HCD75|HCD90|CID35,72.0444:199.0637|199.0634:72.0443|199.0635:72.0444:154.0056|72.0444:199.0629:126.0105|72.0444:126.0104:154.0054|72.0444:126.0105:154.0054|72.0444:126.0104:98.9994|199.0633:72.0443|199.0633:72.0444:154.005|72.0444:199.0634:126.0105|72.0444:126.0104:154.0053|72.0444:126.0105:98.9996|72.0444:126.0105:98.9996|72.0444:199.0628,154.0054;126.0105;98.9996;72.0444,Eawag,EA016151|EA016152|EA016153|EA016154|EA016155|EA016158|EA016159|EA016160|EA016161|EA016164,[M-H]-,CID35|HCD15|HCD30|HCD45|HCD60|HCD15|HCD30|HCD45|HCD60|CID35,151.9908|197.0487|197.0487:151.9906|151.9906:197.0488|151.9905|197.0485|197.0483|151.9906:197.0487|151.9907|151.9907,197.0487;151.9906,Eawag
stpQQR787,"Fludioxonil|4-(2,2-difluoro-1,3-benzodioxol-4-yl)-1H-pyrrole-3-carbonitrile",C1(Oc2c(cccc2O1)c1c(c[nH]c1)C#N)(F)F,248.0397,C12H6F2N2O2,"InChI=1S/C12H6F2N2O2/c13-12(14)17-10-3-1-2-8(11(10)18-12)9-6-16-5-7(9)4-15/h1-3,5-6,16H",CAS_RN: 131341-86-1,86398,MUJOIMFVNIBMKC-UHFFFAOYSA-N,77916,DTXSID2032398,Negative,NA,NA,NA,NA,NA,NA,EA016251|EA016252|EA016253|EA016254|EA016255|EA016256|EA016257|EA016258|EA016259|EA016260|EA016261|EA016262|EA016263|EA016264,[M-H]-,CID35|HCD15|HCD30|HCD45|HCD60|HCD75|HCD90|HCD15|HCD30|HCD45|HCD60|HCD75|HCD90|CID35,181.0407:180.0328:179.0249|247.0325|247.0325|247.0324:181.0407:180.0337|247.0325:181.0407:180.0331|126.0348:180.0327:169.0407|180.0325:126.0348:169.0408|247.0322|247.0323|247.0322:181.0409:180.0325|247.0322:180.0326:181.0405|126.0348:180.0327:247.0319|180.0327:126.0347:169.0405|181.0405:180.0325:179.0248,247.0323;181.0407;180.0327;179.02485;169.0407;126.0348,Eawag
stpQQR788,Bisphenol A|4-[1-(4-hydroxyphenyl)-1-methyl-ethyl]phenol,CC(C)(C1=CC=C(O)C=C1)C2=CC=C(O)C=C2,228.115,C15H16O2,"InChI=1S/C15H16O2/c1-15(2,11-3-7-13(16)8-4-11)12-5-9-14(17)10-6-12/h3-10,16-17H,1-2H3",CAS_RN: 80-05-7,6623,IISBACLAFKSPIT-UHFFFAOYSA-N,6371,DTXSID7020182,Positive,EA016301|EA016303|EA016308|EA016309|EA016310|EA016312|EA016314,[M+H]+,CID35|HCD30|HCD15|HCD30|HCD45|HCD75|CID35,201.0794:159.1163:95.0853|229.1215:201.079:95.0855|229.1217:109.1014:201.0793|229.1216:219.09:95.0856|95.0854:81.0698:109.1015|95.0855:81.07|159.1167:169.0859:147.1165,219.09;201.0793;169.0859;159.1165;147.1165;109.10145;95.0855;81.0699,Eawag,NA,NA,NA,NA,NA,NA
stpQQR789,1H-Benzotriazole,c12c(nn[nH]1)cccc2,119.0483,C6H5N3,"InChI=1S/C6H5N3/c1-2-4-6-5(3-1)7-9-8-6/h1-4H,(H,7,8,9)",CAS_RN: 95-14-7,7220,QRUDEWIWKLJBPS-UHFFFAOYSA-N,6950,DTXSID6020147,Positive/Negative,AU405002|AU405003;SM819701;SM879903;EA016601|EA016602|EA016603|EA016604|EA016605|EA016606|EA016607|EA016608|EA016609|EA016610|EA016611|EA016612|EA016613|EA016614;TUE00161|TUE00162|TUE00163;UF417701|UF417702|UF417703|UF417704;UA000201|UA000203,[M+H]+;[M+H]+;[M+H]+;[M+H]+;[M+H]+;[M+H]+;[M+H]+,CID20|CID30;HCD35;HCD35;CID35|HCD15|HCD30|HCD45|HCD60|HCD75|HCD90|HCD15|HCD30|HCD45|HCD60|HCD75|HCD90|CID35;NA10.0V|NA20.0V|NA40.0V;HCD55|HCD80|CID35|CID55;CID35|CID35,120.0545:121.0582:65.0384|120.0549:65.0384:92.0494;120.0556:65.0387:92.0495;120.0556:92.0495:65.0387;120.0556:92.0494:65.0384|120.0557|120.0556:65.0386:92.0495|120.0556:92.0495:65.0385|120.0556:92.0494:65.0385|120.0556:65.0385:92.0494|120.0556:65.0386:92.0495|120.0556:92.0498|120.0556:65.0384:92.0497|120.0556:65.0385:92.0494|120.0555:92.0494:65.0385|120.0555:65.0385:92.0494|120.0555:65.0386:92.0495|120.0556:92.0494;120.0548:65.0379:92.0486|65.038:120.0546:92.0485|65.0379:39.0217:51.0218;120.0559:92.0498|120.056:92.0497|120.0559:92.0496:65.0386|92.0497:65.0386;92.0493:120.0554|92.0494:65.0384:120.0551,92.04945;65.0385;51.0218;39.0217,Athens_Univ;CASMI_2016;CASMI_2016;Eawag;Env_Anal_Chem_U_Tuebingen;UFZ;UFZ_Additional_Specs,EA016651|EA016652|EA016653|EA016654|EA016655|EA016656|EA016657|EA016658|EA016659|EA016660|EA016661|EA016662|EA016663|EA016664;TUE00165|TUE00166|TUE00167;UA000202,[M-H]-;[M-H]-;[M-H]-,CID35|HCD15|HCD30|HCD45|HCD60|HCD75|HCD90|HCD15|HCD30|HCD45|HCD60|HCD75|HCD90|CID35;NA10.0V|NA20.0V|NA40.0V;CID35,118.0412:90.0348|118.0412|118.0412:90.0348|118.0413:90.0349|118.0413:90.0349|118.0411:90.0349|118.0412:90.0349|118.0411|118.0412|118.0412:90.035|118.0411:90.0349|118.041:90.0348|118.041:90.0348|118.0411;118.0411:90.0347:50.0032|118.041:90.0347:50.0031|50.0032:40.0186:64.019;118.0412,118.0412;90.03485;64.019;50.0032;40.0186,Eawag;Env_Anal_Chem_U_Tuebingen;UFZ_Additional_Specs
stpQQR790,5-Methyl-1H-benzotriazole,c12c(cc(C)cc2)nn[nH]1,133.064,C7H7N3,"InChI=1S/C7H7N3/c1-5-2-3-6-7(4-5)9-10-8-6/h2-4H,1H3,(H,8,9,10)",CAS_RN: 136-85-6,8705,LRUDIIUSNGCQKF-UHFFFAOYSA-N,8381,DTXSID1038743,Positive/Negative,AU405101|AU405102;SM821601;SM880101;EA016701|EA016702|EA016703|EA016704|EA016705|EA016706|EA016707|EA016708|EA016709|EA016710|EA016711|EA016712|EA016713|EA016714;TUE00031|TUE00032|TUE00033,[M+H]+;[M+H]+;[M+H]+;[M+H]+;[M+H]+,CID10|CID20;HCD35;HCD35;CID35|HCD15|HCD30|HCD45|HCD60|HCD75|HCD90|HCD15|HCD30|HCD45|HCD60|HCD75|HCD90|CID35;NA10.0V|NA20.0V|NA40.0V,134.0715:135.0746|134.0713:135.0742;134.0713:79.0543:106.0651;134.0712:79.0542:106.0651;134.0713:106.0651:79.0542|134.0714|134.0713:77.0386:79.0543|134.0715:106.0653:79.0543|134.0713:79.0543:106.0652|134.0714:79.0543:77.0386|134.0713:77.0386:79.0542|134.0713:79.0544|134.0714:106.0651:79.0544|134.0714:106.0651:79.0542|134.0713:79.0543:106.0652|134.0713:79.0543:77.0386|134.0713:77.0386:79.0543|134.0713:106.0652:79.0542;134.0713:79.0543:77.0386|77.0387:79.0543:134.0712|77.0387:51.0227:53.0385,106.0651;79.0543;77.0386;53.0385;51.0227,Athens_Univ;CASMI_2016;CASMI_2016;Eawag;Env_Anal_Chem_U_Tuebingen,EA016751|EA016752|EA016753|EA016754|EA016755|EA016756|EA016757|EA016758|EA016759|EA016760|EA016761|EA016762|EA016763|EA016764;TUE00035|TUE00036|TUE00037,[M-H]-;[M-H]-,CID35|HCD15|HCD30|HCD45|HCD60|HCD75|HCD90|HCD15|HCD30|HCD45|HCD60|HCD75|HCD90|CID35;NA10.0V|NA20.0V|NA40.0V,132.0568:103.0425:104.0508|132.0569|132.0568|132.0569:104.0505:103.0428|132.0568:104.0506:103.0426|132.0568:103.0428:104.0506|132.0568:103.0426:104.0507|132.0569|132.0569|132.0569:104.0503|132.0568:103.0426:104.0502|132.0568:103.0425:104.0503|132.0569:104.0506:103.0429|132.0567:104.0502:103.0423;132.0567:103.0426:104.0504|132.0564:103.0426:64.0192|64.019:88.0192:50.003,132.0568;104.0505;103.0426;88.0192;64.0191;50.003,Eawag;Env_Anal_Chem_U_Tuebingen