NORMAN_ID,NAME,SMILES,NEUTRAL_EXACT_MASS,FORMULA,StdInChI,CAS_RN,PUBCHEM_CID,InChIKey,CHEMSPIDER_ID,DTXSID,Preferable Ionization,MB_Records Positive Ionization,Adduct Positive Ionization,Ionisation type and collision energy Positive Ionization,Fragments Positive Ionization,Simplified_fragments_Positive,Institute Positive Ionization,MB_Records Negative Ionization,Adduct Negative Ionization,Ionisation type and collision energy Negative Ionization,Fragments Negative Ionization,Simplified_fragments_Negative,Institute Negative Ionization
stpQQR312,Oxybutynin|4-(diethylamino)but-2-ynyl 2-cyclohexyl-2-hydroxy-2-phenylacetate,CCN(CC)CC#CCOC(=O)C(O)(C1CCCCC1)C1=CC=CC=C1,357.23039,C22H31NO3,"InChI=1S/C22H31NO3/c1-3-23(4-2)17-11-12-18-26-21(24)22(25,19-13-7-5-8-14-19)20-15-9-6-10-16-20/h5,7-8,13-14,20,25H,3-4,6,9-10,15-18H2,1-2H3",CAS_RN: 5633-20-5,4634,XIQVNETUBQGFHX-UHFFFAOYSA-N,4473,DTXSID0023406,Positive,SM849703;EQ302501|EQ302502|EQ302503|EQ302504|EQ302505|EQ302506,[M+H]+;[M+H]+,HCD35;HCD15|HCD30|HCD45|HCD60|HCD75|HCD90,358.2378:142.1227:72.0808;358.238:124.1122:340.2275|358.2381:124.1122:142.1228|142.1229:72.0808:105.0336|72.0808:142.1229:105.0336|72.0808:58.0652:105.0336|72.0808:58.0652:79.0543,340.2275;142.12285;124.1122;105.0336;79.0543;72.0808;58.0652,CASMI_2016;Eawag,NA,NA,NA,NA,NA,NA
stpQQR313,"Nitrendipin|Nitrendipine|5-O-ethyl 3-O-methyl 2,6-dimethyl-4-(3-nitrophenyl)-1,4-dihydropyridine-3,5-dicarboxylate",CCOC(=O)C1=C(C)NC(C)=C(C1C1=CC=CC(=C1)[N+]([O-])=O)C(=O)OC,360.13214,C18H20N2O6,"InChI=1S/C18H20N2O6/c1-5-26-18(22)15-11(3)19-10(2)14(17(21)25-4)16(15)12-7-6-8-13(9-12)20(23)24/h6-9,16,19H,5H2,1-4H3",CAS_RN: 80873-62-7,4507,PVHUJELLJLJGLN-UHFFFAOYSA-N,4351,DTXSID0023373,Positive/Negative,SM849802,[M+H]+,HCD35,315.0976:329.1133:361.1395,329.1133;315.0976,CASMI_2016,SM849851,[M-H]-,HCD35,359.125:122.0242:92.0253,359.125;122.0242;92.0253,CASMI_2016
stpQQR314,Monensin,CC[C@]1(CC[C@@H](O1)[C@@]1(C)CC[C@]2(C[C@H](O)[C@@H](C)[C@H](O2)[C@H](C)[C@H](OC)[C@@H](C)C(O)=O)O1)[C@H]1O[C@@H](C[C@H]1C)[C@H]1O[C@@](O)(CO)[C@H](C)C[C@@H]1C,670.4292,C36H62O11,"InChI=1S/C36H62O11/c1-10-34(31-20(3)16-26(43-31)28-19(2)15-21(4)36(41,18-37)46-28)12-11-27(44-34)33(8)13-14-35(47-33)17-25(38)22(5)30(45-35)23(6)29(42-9)24(7)32(39)40/h19-31,37-38,41H,10-18H2,1-9H3,(H,39,40)/t19-,20+,21+,22+,23+,24+,25-,26-,27+,28-,29-,30-,31-,33+,34-,35+,36-/m0/s1",CAS_RN: NA,28263,GAOZTHIDHYLHMS-GDMSFIFLSA-N,26293,NA,Negative,NA,NA,NA,NA,NA,NA,SM849951,[M-H]-,HCD35,669.4219:637.3938:137.097,669.4219;637.3938;137.097,CASMI_2016
stpQQR315,Furosemide|4-chloro-2-(furan-2-ylmethylamino)-5-sulfamoylbenzoic acid,NS(=O)(=O)c1cc(C(O)=O)c(NCc2ccco2)cc1Cl,330.00772,C12H11ClN2O5S,"InChI=1S/C12H11ClN2O5S/c13-9-5-10(15-6-7-2-1-3-20-7)8(12(16)17)4-11(9)21(14,18)19/h1-5,15H,6H2,(H,16,17)(H2,14,18,19)",CAS_RN: 54-31-9,3440,ZZUFCTLCJUWOSV-UHFFFAOYSA-N,3322,DTXSID6020648,Positive/Negative,SM850104;EA260001|EA260002|EA260003|EA260004|EA260005|EA260006|EA260007|EA260008|EA260009|EA260010|EA260011|EA260012|EA260013|EA260014;UF407803|UF407804,[M+H]+;[M+H]+;[M+H]+,HCD35;CID35|HCD15|HCD30|HCD45|HCD60|HCD75|HCD90|HCD15|HCD30|HCD45|HCD60|HCD75|HCD90|CID35;CID35|CID55,81.0335:53.0388:205.0101;252.9968:254.9935:176.9887|81.0335:98.984:176.9892|81.0335:98.9841|98.9841:81.0335|98.9841:81.0334|98.9841:81.0334|98.984:81.0333:195.9484|81.0334:98.9841:252.9966|98.9841:81.0334:262.9888|98.9841:81.0334|98.9841:81.0334|98.9841:81.0334|98.9841:81.0335|252.9969:254.9939:176.9891;272.9385:244.944|272.9388:244.9434,272.93865;262.9888;254.9937;252.9968;244.9437;205.0101;195.9484;176.9891;98.9841;81.0334;53.0388,CASMI_2016;Eawag;UFZ,SM850151;EA260051|EA260052|EA260053|EA260054|EA260055|EA260056|EA260057|EA260058|EA260059|EA260060|EA260061|EA260062|EA260063|EA260064;UF407851|UF407852|UF407853|UF407854,[M-H]-;[M-H]-;[M-H]-,HCD35;CID35|HCD15|HCD30|HCD45|HCD60|HCD75|HCD90|HCD15|HCD30|HCD45|HCD60|HCD75|HCD90|CID35;HCD55|HCD80|CID35|CID55,204.9843:285.0106:329.0004;285.0109:204.9846:249.0339|329.0007:285.0111|285.0109:204.9846:329.0007|204.9846:77.9656:285.0108|77.9656:204.9846:126.0118|77.9656:126.0117:121.041|77.9655:94.0297:121.0404|329.0007:285.0105|285.0106:204.9845:329.0003|204.9845:77.9656:285.0103|77.9655:204.9845:126.0116|77.9656:126.0117:121.0407|77.9656:121.0405:126.0117|285.0107:204.9842:249.0336;285.0106|285.0111:204.9844|285.0106:204.9842|285.0105:204.9844,329.0007;285.0106;249.03375;204.9845;126.0117;121.0406;94.0297;77.9656,CASMI_2016;Eawag;UFZ
stpQQR316,"Primidone|5-ethyl-5-phenyl-1,3-diazinane-4,6-dione",CCC1(C(=O)NCNC1=O)c1ccccc1,218.10553,C12H14N2O2,"InChI=1S/C12H14N2O2/c1-2-12(9-6-4-3-5-7-9)10(15)13-8-14-11(12)16/h3-7H,2,8H2,1H3,(H,13,15)(H,14,16)",CAS_RN: 125-33-7,4909,DQMZLTXERSFNPB-UHFFFAOYSA-N,4740,DTXSID7023510,Positive,AU151606;SM850201;EA019501|EA019502|EA019503|EA019504|EA019505|EA019506|EA019507|EA019508|EA019509|EA019510|EA019511|EA019512|EA019513|EA019514;UF409501|UF409502|UF409503|UF409504,[M+H]+;[M+H]+;[M+H]+;[M+H]+,CIDRAMP 18.7-28.0;HCD35;CID35|HCD15|HCD30|HCD45|HCD60|HCD75|HCD90|HCD15|HCD30|HCD45|HCD60|HCD75|HCD90|CID35;HCD55|HCD80|CID35|CID55,162.0908:119.0848:91.054;162.0913:91.0542:119.0855;162.0915:174.0915:119.0855|219.1129:162.0914:174.0913|162.0914:119.0855:91.0542|91.0542:162.0912:119.0854|91.0542:117.0698:162.0912|91.0542:117.0699:106.0651|91.0542:117.0698:115.0542|219.1128:162.0913:174.0913|162.0913:119.0855:91.0542|162.0912:91.0542:119.0854|91.0542:117.0698:162.0913|91.0542:117.0698:106.065|91.0542:117.0698:115.0541|162.0913:174.0912:119.0854;91.0543:162.0916:117.07|91.0543:117.07:106.0652|162.0915:174.0915:119.0856|162.0916:174.0916:119.0857,174.0914;162.0913;119.0855;117.0698;115.05415;106.0651;91.0542,Athens_Univ;CASMI_2016;Eawag;UFZ,NA,NA,NA,NA,NA,NA
stpQQR317,"Sulfamethazine|4-amino-N-(4,6-dimethylpyrimidin-2-yl)benzenesulfonamide",Cc1cc(C)nc(NS(=O)(=O)c2ccc(N)cc2)n1,278.08375,C12H14N4O2S,"InChI=1S/C12H14N4O2S/c1-8-7-9(2)15-12(14-8)16-19(17,18)11-5-3-10(13)4-6-11/h3-7H,13H2,1-2H3,(H,14,15,16)",CAS_RN: 57-68-1,5327,ASWVTGNCAZCNNR-UHFFFAOYSA-N,5136,DTXSID6021290,Positive,AU100801|AU100802|AU100803|AU100804|AU100805|AU100806;SM850301;EA018101|EA018102|EA018103|EA018104|EA018105|EA018106|EA018107|EA018108|EA018109|EA018110|EA018111|EA018112|EA018113|EA018114;UF409901|UF409902|UF409903|UF409904|UF409935|UF409936,[M+H]+;[M+H]+;[M+H]+;[M+H]+,CID20.8-31.3|CID20|CID30|CID40|CID50|CID10;HCD35;CID35|HCD15|HCD30|HCD45|HCD60|HCD75|HCD90|HCD15|HCD30|HCD45|HCD60|HCD75|HCD90|CID35;HCD55|HCD80|CID35|CID55|CID35|CID55,204.0445:156.0117:124.0872|204.0431:279.0909:156.0104|124.0861:204.0429:156.0106|124.0862:213.1121:204.0427|124.0859:213.1122:125.0891|279.0908:156.0098:186.0319;279.091:204.0437:124.0869;186.0333:204.0437:124.0869|279.0911:186.0342:149.0238|279.091:186.0332:204.0438|124.0869:186.033:156.0113|124.0869:108.0444:92.0495|124.0869:108.0444:92.0495|124.0869:108.0443:92.0494|279.0911:186.0338:149.0233|279.091:186.0331:124.0869|124.087:186.0332:108.0444|124.0869:108.0444:92.0495|124.0869:108.0444:92.0495|124.0869:92.0495:108.0444|186.0333:204.0437:124.0869;124.087:108.0444:92.0495|124.087:92.0495:108.0445|186.0334:279.0913:204.044|186.0333:204.044:124.0871|208.0176:146.0687:127.0059|208.0176:146.0687:226.0282,226.0282;213.11215;208.0176;204.0437;186.0333;156.0106;149.02355;146.0687;127.0059;125.0891;124.0869;108.0444;92.0495,Athens_Univ;CASMI_2016;Eawag;UFZ,NA,NA,NA,NA,NA,NA
stpQQR318,"7-Hydroxymethotrexat|7-Hydroxy Methotrexate|2-[[4-[(2,4-diamino-7-oxo-8H-pteridin-6-yl)methyl-methylamino]benzoyl]amino]pentanedioic acid",CN(CC1=Nc2c(N)nc(N)nc2NC1=O)c1ccc(cc1)C(=O)NC(CCC(O)=O)C(O)=O,470.16623,C20H22N8O6,"InChI=1S/C20H22N8O6/c1-28(8-12-18(32)26-16-14(23-12)15(21)25-20(22)27-16)10-4-2-9(3-5-10)17(31)24-11(19(33)34)6-7-13(29)30/h2-5,11H,6-8H2,1H3,(H,24,31)(H,29,30)(H,33,34)(H5,21,22,25,26,27,32)",CAS_RN: 5939-37-7,5385077,HODZDDDNGRLGSI-UHFFFAOYSA-N,4532295,NA,Positive/Negative,SM850501,[M+H]+,HCD35,191.0676:324.1205:148.0617,324.1205;191.0676;148.0617,CASMI_2016,SM850551,[M-H]-,HCD35,469.159:340.1165:190.0609,469.159;340.1165;190.0609,CASMI_2016
stpQQR319,Azelastine|4-[(4-chlorophenyl)methyl]-2-(1-methylazepan-4-yl)phthalazin-1-one,CN1CCCC(CC1)N1N=C(Cc2ccc(Cl)cc2)c2ccccc2C1=O,381.16079,C22H24ClN3O,"InChI=1S/C22H24ClN3O/c1-25-13-4-5-18(12-14-25)26-22(27)20-7-3-2-6-19(20)21(24-26)15-16-8-10-17(23)11-9-16/h2-3,6-11,18H,4-5,12-15H2,1H3",CAS_RN: 58581-89-8,2267,MBUVEWMHONZEQD-UHFFFAOYSA-N,2180,DTXSID6022638,Positive,SM850803,[M+H]+,HCD35,112.1121:382.1681:58.0653,112.1121;58.0653,CASMI_2016,NA,NA,NA,NA,NA,NA
stpQQR320,Duloxetine|(3S)-N-methyl-3-naphthalen-1-yloxy-3-thiophen-2-ylpropan-1-amine,CNCC[C@H](Oc1cccc2ccccc12)c1cccs1,297.11874,C18H19NOS,"InChI=1S/C18H19NOS/c1-19-12-11-17(18-10-5-13-21-18)20-16-9-4-7-14-6-2-3-8-15(14)16/h2-10,13,17,19H,11-12H2,1H3/t17-/m0/s1",CAS_RN: 136434-34-9,60835,ZEUITGRIYCTCEM-KRWDZBQOSA-N,54822,DTXSID6048385,Positive,SM850903,[M+H]+,HCD35,298.1262:183.0805:157.0649,183.0805;157.0649,CASMI_2016,NA,NA,NA,NA,NA,NA
stpQQR321,Glibenclamide|Glyburide|5-chloro-N-[2-[4-(cyclohexylcarbamoylsulfamoyl)phenyl]ethyl]-2-methoxybenzamide,COC1=C(C=C(Cl)C=C1)C(=O)NCCC1=CC=C(C=C1)S(=O)(=O)NC(=O)NC1CCCCC1,493.14382,C23H28ClN3O5S,"InChI=1S/C23H28ClN3O5S/c1-32-21-12-9-17(24)15-20(21)22(28)25-14-13-16-7-10-19(11-8-16)33(30,31)27-23(29)26-18-5-3-2-4-6-18/h7-12,15,18H,2-6,13-14H2,1H3,(H,25,28)(H2,26,27,29)",CAS_RN: 10238-21-8,3488,ZNNLBTZKUZBEKO-UHFFFAOYSA-N,3368,DTXSID0037237,Positive/Negative,SM851101,[M+H]+,HCD35,169.0051:369.0673:304.0736,369.0673;304.0736;169.0051,CASMI_2016,SM851151,[M-H]-,HCD35,170.0014:492.1365:126.9953,492.1365;170.0014;126.9953,CASMI_2016
stpQQR322,Glimepiride|4-ethyl-3-methyl-N-[2-[4-[(4-methylcyclohexyl)carbamoylsulfamoyl]phenyl]ethyl]-5-oxo-2H-pyrrole-1-carboxamide,CCC1=C(C)CN(C(=O)NCCC2=CC=C(C=C2)S(=O)(=O)NC(=O)NC2CCC(C)CC2)C1=O,490.22499,C24H34N4O5S,"InChI=1S/C24H34N4O5S/c1-4-21-17(3)15-28(22(21)29)24(31)25-14-13-18-7-11-20(12-8-18)34(32,33)27-23(30)26-19-9-5-16(2)6-10-19/h7-8,11-12,16,19H,4-6,9-10,13-15H2,1-3H3,(H,25,31)(H2,26,27,30)",CAS_RN: 93479-97-1,3476,WIGIZIANZCJQQY-UHFFFAOYSA-N,3357,NA,Positive/Negative,SM851202,[M+H]+,HCD35,126.0914:352.1327:181.0972,352.1327;181.0972;126.0914,CASMI_2016,SM851253,[M-H]-,HCD35,225.034:489.2179:364.1339,489.2179;364.1339;225.034,CASMI_2016
stpQQR323,"Risperidone|3-[2-[4-(6-fluoro-1,2-benzoxazol-3-yl)piperidin-1-yl]ethyl]-2-methyl-6,7,8,9-tetrahydropyrido[1,2-a]pyrimidin-4-one",CC1=C(CCN2CCC(CC2)c2noc3cc(F)ccc23)C(=O)N2CCCCC2=N1,410.2118,C23H27FN4O2,"InChI=1S/C23H27FN4O2/c1-15-18(23(29)28-10-3-2-4-21(28)25-15)9-13-27-11-7-16(8-12-27)22-19-6-5-17(24)14-20(19)30-26-22/h5-6,14,16H,2-4,7-13H2,1H3",CAS_RN: 106266-06-2,5073,RAPZEAPATHNIPO-UHFFFAOYSA-N,4895,DTXSID8045193,Positive,AU150501|AU150502|AU150503|AU150504|AU150505;SM851301,[M+H]+;[M+H]+,CID10|CID20|CID30|CID40|CID50;HCD35,411.226:191.1198|411.2241:191.1199:192.1231|191.1214:411.2246:192.1233|191.1208:192.1237:411.2245|191.1221:192.1236:163.125;191.1178:411.2191:110.06,192.12345;191.12035;163.125;110.06,Athens_Univ;CASMI_2016,NA,NA,NA,NA,NA,NA
stpQQR324,Bosentan|4-tert-butyl-N-[6-(2-hydroxyethoxy)-5-(2-methoxyphenoxy)-2-pyrimidin-2-ylpyrimidin-4-yl]benzenesulfonamide,COC1=CC=CC=C1OC1=C(OCCO)N=C(N=C1NS(=O)(=O)C1=CC=C(C=C1)C(C)(C)C)C1=NC=CC=N1,551.18385,C27H29N5O6S,"InChI=1S/C27H29N5O6S/c1-27(2,3)18-10-12-19(13-11-18)39(34,35)32-23-22(38-21-9-6-5-8-20(21)36-4)26(37-17-16-33)31-25(30-23)24-28-14-7-15-29-24/h5-15,33H,16-17H2,1-4H3,(H,30,31,32)",CAS_RN: 157212-55-0,104865,GJPICJJJRGTNOD-UHFFFAOYSA-N,94651,DTXSID7046627,Positive/Negative,SM851503,[M+H]+,HCD35,202.0723:552.1914:280.0829,280.0829;202.0723,CASMI_2016,SM851552,[M-H]-,HCD35,550.1766:197.0641:308.0789,550.1766;308.0789;197.0641,CASMI_2016
stpQQR325,Celecoxib|4-[5-(4-methylphenyl)-3-(trifluoromethyl)pyrazol-1-yl]benzenesulfonamide,CC1=CC=C(C=C1)C1=CC(=NN1C1=CC=C(C=C1)S(N)(=O)=O)C(F)(F)F,381.07588,C17H14F3N3O2S,"InChI=1S/C17H14F3N3O2S/c1-11-2-4-12(5-3-11)15-10-16(17(18,19)20)22-23(15)13-6-8-14(9-7-13)26(21,24)25/h2-10H,1H3,(H2,21,24,25)",CAS_RN: 184007-95-2,2662,RZEKVGVHFLEQIL-UHFFFAOYSA-N,2562,DTXSID0022777,Positive/Negative,SM851602,[M+H]+,HCD35,382.0832:362.077:303.1104,362.077;303.1104,CASMI_2016,SM851653,[M-H]-,HCD35,380.0687:316.1067:276.0943,380.0687;316.1067;276.0943,CASMI_2016
stpQQR326,Domperidone|6-chloro-3-[1-[3-(2-oxo-3H-benzimidazol-1-yl)propyl]piperidin-4-yl]-1H-benzimidazol-2-one,ClC1=CC2=C(C=C1)N(C1CCN(CCCN3C(=O)NC4=C3C=CC=C4)CC1)C(=O)N2,425.16185,C22H24ClN5O2,"InChI=1S/C22H24ClN5O2/c23-15-6-7-20-18(14-15)25-22(30)28(20)16-8-12-26(13-9-16)10-3-11-27-19-5-2-1-4-17(19)24-21(27)29/h1-2,4-7,14,16H,3,8-13H2,(H,24,29)(H,25,30)",CAS_RN: 57808-66-9,3151,FGXWKSZFVQUSTL-UHFFFAOYSA-N,3039,DTXSID1045116,Positive/Negative,SM851701,[M+H]+,HCD35,175.0866:426.1691:147.0552,175.0866;147.0552,CASMI_2016,SM851751,[M-H]-,HCD35,424.1549:167.0017:133.0405,424.1549;167.0017;133.0405,CASMI_2016
stpQQR327,"Efavirenz|(4S)-6-chloro-4-(2-cyclopropylethynyl)-4-(trifluoromethyl)-1H-3,1-benzoxazin-2-one",FC(F)(F)[C@]1(OC(=O)NC2=C1C=C(Cl)C=C2)C#CC1CC1,315.02739,C14H9ClF3NO2,"InChI=1S/C14H9ClF3NO2/c15-9-3-4-11-10(7-9)13(14(16,17)18,21-12(20)19-11)6-5-8-1-2-8/h3-4,7-8H,1-2H2,(H,19,20)/t13-/m0/s1",CAS_RN: 154598-52-4,64139,XPOQHMRABVBWPR-ZDUSSCGKSA-N,57715,DTXSID9046029,Positive/Negative,SM851803;EQ329201|EQ329202|EQ329203|EQ329204|EQ329205|EQ329206,[M+H]+;[M+H]+,HCD35;HCD15|HCD30|HCD45|HCD60|HCD75|HCD90,244.0137:168.0808:53.0388;244.0136:272.0448:316.0346|244.0135:168.0807:232.0137|168.0808:224.0073:244.0136|224.0074:168.0808:167.073|167.073:168.0807:189.0385|167.0729:189.0385:166.0652,272.0448;244.0136;232.0137;224.00735;189.0385;168.0808;167.073;166.0652;53.0388,CASMI_2016;Eawag,SM851853;EQ329251|EQ329252|EQ329253|EQ329254|EQ329255|EQ329256,[M-H]-;[M-H]-,HCD35;HCD15|HCD30|HCD45|HCD60|HCD75|HCD90,314.0203:244.0172:241.9991;314.0203:244.0171:230.0179|68.9958:244.0171:241.9992|68.9958:244.0171:241.9991|68.9958:221.9928:65.0397|68.9958:65.0397:221.9929|68.9958:65.0397:65.9986,314.0203;244.0171;241.9991;230.0179;221.99285;68.9958;65.9986;65.0397,CASMI_2016;Eawag
stpQQR328,Fluvoxamine|2-[(E)-[5-methoxy-1-[4-(trifluoromethyl)phenyl]pentylidene]amino]oxyethanamine,COCCCC\C(=N/OCCN)C1=CC=C(C=C1)C(F)(F)F,318.15551,C15H21F3N2O2,"InChI=1S/C15H21F3N2O2/c1-21-10-3-2-4-14(20-22-11-9-19)12-5-7-13(8-6-12)15(16,17)18/h5-8H,2-4,9-11,19H2,1H3/b20-14+",CAS_RN: 3481-84-3,5324346,CJOFXWAVKWHTFT-XSFVSMFZSA-N,4481878,DTXSID2044002,Positive,SM851903,[M+H]+,HCD35,71.0492:319.1629:258.1102,258.1102;71.0492,CASMI_2016,NA,NA,NA,NA,NA,NA
stpQQR329,Imatinib|4-[(4-methylpiperazin-1-yl)methyl]-N-[4-methyl-3-[(4-pyridin-3-ylpyrimidin-2-yl)amino]phenyl]benzamide,CN1CCN(CC2=CC=C(C=C2)C(=O)NC2=CC(NC3=NC(=CC=N3)C3=CN=CC=C3)=C(C)C=C2)CC1,493.25901,C29H31N7O,"InChI=1S/C29H31N7O/c1-21-5-10-25(18-27(21)34-29-31-13-11-26(33-29)24-4-3-12-30-19-24)32-28(37)23-8-6-22(7-9-23)20-36-16-14-35(2)15-17-36/h3-13,18-19H,14-17,20H2,1-2H3,(H,32,37)(H,31,33,34)",CAS_RN: 220127-57-1,5291,KTUFNOKKBVMGRW-UHFFFAOYSA-N,5101,DTXSID3037125,Positive/Negative,SM852103;EQ363301|EQ363302|EQ363303|EQ363304|EQ363305|EQ363306|EQ363307|EQ363308|EQ363309,[M+H]+;[M+H]+,HCD35;HCD15|HCD30|HCD45|HCD60|HCD75|HCD90|HCD120|HCD150|HCD180,494.2665:394.1664:222.0913;494.2661:394.166:217.1335|394.1662:217.1335:494.2665|394.1664:222.0913:379.1429|378.1351:247.0866:222.0914|378.1352:247.0866:222.0914|58.0651:70.0651:219.0917|89.0386:165.0699:58.0651|89.0386:152.062:58.0651|89.0386:63.0229:150.0464,394.1663;379.1429;378.13515;247.0866;222.09135;219.0917;217.1335;165.0699;152.062;150.0464;89.0386;70.0651;63.0229;58.0651,CASMI_2016;Eawag,EQ363351|EQ363352|EQ363353|EQ363354|EQ363355|EQ363356|EQ363357|EQ363358|EQ363359,[M-H]-,HCD15|HCD30|HCD45|HCD60|HCD75|HCD90|HCD120|HCD150|HCD180,492.2517|492.2518:302.1046:393.1593|302.1048:492.2517:264.1142|264.1142:302.1048:198.0672|264.1141:198.0673:172.0517|172.0516:171.0564:198.0674|65.0145:158.0361:172.0516|65.0145:50.0035:79.03|65.0145:50.0036:79.0303,492.2517;393.1593;302.1048;264.1142;198.0673;172.0516;171.0564;158.0361;79.03015;65.0145;50.00355,Eawag
stpQQR330,"L-Thyroxine|DL-Thyroxine|2-amino-3-[4-(4-hydroxy-3,5-diiodophenoxy)-3,5-diiodophenyl]propanoic acid",NC(CC1=CC(I)=C(OC2=CC(I)=C(O)C(I)=C2)C(I)=C1)C(O)=O,776.6867,C15H11I4NO4,"InChI=1S/C15H11I4NO4/c16-8-4-7(5-9(17)13(8)21)24-14-10(18)1-6(2-11(14)19)3-12(20)15(22)23/h1-2,4-5,12,21H,3,20H2,(H,22,23)",CAS_RN: 51-49-0,853,XUIIKFGFIJCVMT-UHFFFAOYSA-N,830,DTXSID0023662,Negative,NA,NA,NA,NA,NA,NA,SM852253,[M-H]-,HCD35,126.9047:603.7798:775.6789,775.6789;603.7798;126.9047,CASMI_2016
stpQQR331,"Mebeverine|4-[ethyl-[1-(4-methoxyphenyl)propan-2-yl]amino]butyl 3,4-dimethoxybenzoate",CCN(CCCCOC(=O)C1=CC(OC)=C(OC)C=C1)C(C)CC1=CC=C(OC)C=C1,429.25152,C25H35NO5,"InChI=1S/C25H35NO5/c1-6-26(19(2)17-20-9-12-22(28-3)13-10-20)15-7-8-16-31-25(27)21-11-14-23(29-4)24(18-21)30-5/h9-14,18-19H,6-8,15-17H2,1-5H3",CAS_RN: 3625-06-7,4031,VYVKHNNGDFVQGA-UHFFFAOYSA-N,3891,DTXSID6023238,Positive,SM852303,[M+H]+,HCD35,121.0648:149.0961:430.259,149.0961;121.0648,CASMI_2016,NA,NA,NA,NA,NA,NA
stpQQR332,Ondansetron,CN1C2=C(C3=C1C=CC=C3)C(=O)C(CN1C=CN=C1C)CC2,293.15281,C18H19N3O,"InChI=1S/C18H19N3O/c1-12-19-9-10-21(12)11-13-7-8-16-17(18(13)22)14-5-3-4-6-15(14)20(16)2/h3-6,9-10,13H,7-8,11H2,1-2H3",CAS_RN: 99614-02-5,4595,FELGMEQIXOGIFQ-UHFFFAOYSA-N,4434,DTXSID8023393,Positive,SM852501,[M+H]+,HCD35,294.16:170.0964:184.1121,184.1121;170.0964,CASMI_2016,NA,NA,NA,NA,NA,NA
stpQQR333,"Pioglitazone|5-[[4-[2-(5-ethylpyridin-2-yl)ethoxy]phenyl]methyl]-1,3-thiazolidine-2,4-dione",CCC1=CC=C(CCOC2=CC=C(CC3SC(=O)NC3=O)C=C2)N=C1,356.11946,C19H20N2O3S,"InChI=1S/C19H20N2O3S/c1-2-13-3-6-15(20-12-13)9-10-24-16-7-4-14(5-8-16)11-17-18(22)21-19(23)25-17/h3-8,12,17H,2,9-11H2,1H3,(H,21,22,23)",CAS_RN: 105390-47-4,4829,HYAFETHFCAUJAY-UHFFFAOYSA-N,4663,DTXSID3037129,Positive/Negative,AU220306;SM852602;EQ328601|EQ328602|EQ328603|EQ328604|EQ328605|EQ328606,[M+H]+;[M+H]+;[M+H]+,CIDRAMP 22.7-34.1;HCD35;HCD15|HCD30|HCD45|HCD60|HCD75|HCD90,357.1338:134.0969:135.1029;134.0964:357.1267:135.1042;357.1273:134.0961:135.1043|357.1273:134.0966:135.1043|134.0967:135.1042:119.0731|134.0967:119.0732:135.1043|134.0967:119.0732:106.0653|119.0731:134.0967:118.0654,135.10425;134.0967;119.07315;118.0654;106.0653,Athens_Univ;CASMI_2016;Eawag,SM852651;EQ328651|EQ328652|EQ328653|EQ328654|EQ328655|EQ328656,[M-H]-;[M-H]-,HCD35;HCD15|HCD30|HCD45|HCD60|HCD75|HCD90,355.1122:150.0145:312.1063;355.1123:312.1065:150.0144|355.1124:312.1066:150.0145|150.0145:178.0095:119.0503|150.0145:119.0503:117.0347|150.0145:117.0347:149.0067|117.0348:149.0067:150.0145,355.1123;312.1065;178.0095;150.0145;149.0067;119.0503;117.0347,CASMI_2016;Eawag
stpQQR334,Vardenafil,CCCC1=NC(C)=C2N1NC(=NC2=O)C1=CC(=CC=C1OCC)S(=O)(=O)N1CCN(CC)CC1,488.2206,C23H32N6O4S,"InChI=1S/C23H32N6O4S/c1-5-8-20-24-16(4)21-23(30)25-22(26-29(20)21)18-15-17(9-10-19(18)33-7-3)34(31,32)28-13-11-27(6-2)12-14-28/h9-10,15H,5-8,11-14H2,1-4H3,(H,25,26,30)",CAS_RN: 224785-90-4,110634,SECKRCOLJRRGGV-UHFFFAOYSA-N,99300,DTXSID3048318,Negative,NA,NA,NA,NA,NA,NA,SM852853,[M-H]-,HCD35,487.2132:459.1822:285.0994,487.2132;459.1822;285.0994,CASMI_2016
stpQQR335,"Ziprasidone|5-[2-[4-(1,2-benzothiazol-3-yl)piperazin-1-yl]ethyl]-6-chloro-1,3-dihydroindol-2-one",ClC1=CC2=C(CC(=O)N2)C=C1CCN1CCN(CC1)C1=NSC2=C1C=CC=C2,412.11246,C21H21ClN4OS,"InChI=1S/C21H21ClN4OS/c22-17-13-18-15(12-20(27)23-18)11-14(17)5-6-25-7-9-26(10-8-25)21-16-3-1-2-4-19(16)28-24-21/h1-4,11,13H,5-10,12H2,(H,23,27)",CAS_RN: 146939-27-7,60854,MVWVFYHBGMAFLY-UHFFFAOYSA-N,54841,DTXSID4023753,Positive,SM852903,[M+H]+,HCD35,194.0368:413.1199:159.0679,194.0368;159.0679,CASMI_2016,NA,NA,NA,NA,NA,NA