NORMAN_ID,NAME,SMILES,NEUTRAL_EXACT_MASS,FORMULA,StdInChI,CAS_RN,PUBCHEM_CID,InChIKey,CHEMSPIDER_ID,DTXSID,Preferable Ionization,MB_Records Positive Ionization,Adduct Positive Ionization,Ionisation type and collision energy Positive Ionization,Fragments Positive Ionization,Simplified_fragments_Positive,Institute Positive Ionization,MB_Records Negative Ionization,Adduct Negative Ionization,Ionisation type and collision energy Negative Ionization,Fragments Negative Ionization,Simplified_fragments_Negative,Institute Negative Ionization
stpQQR1044,Amisulpride|4-amino-5-esyl-N-[(1-ethylpyrrolidin-2-yl)methyl]-2-methoxy-benzamide,CCN1CCCC1CNC(=O)C2=CC(=C(C=C2OC)N)S(=O)(=O)CC,369.1722,C17H27N3O4S,"InChI=1S/C17H27N3O4S/c1-4-20-8-6-7-12(20)11-19-17(21)13-9-16(25(22,23)5-2)14(18)10-15(13)24-3/h9-10,12H,4-8,11,18H2,1-3H3,(H,19,21)",CAS_RN: 71675-85-9,2159,NTJOBXMMWNYJFB-UHFFFAOYSA-N,2074,DTXSID5042613,Positive/Negative,AU214201|AU214202|AU214203|AU214204|AU214205;EA285201|EA285202|EA285203|EA285204|EA285205|EA285206|EA285207|EA285208|EA285209|EA285210|EA285211|EA285212|EA285213|EA285214,[M+H]+;[M+H]+,CID10|CID20|CID30|CID40|CID50;CID35|HCD15|HCD30|HCD45|HCD60|HCD75|HCD90|HCD15|HCD30|HCD45|HCD60|HCD75|HCD90|CID35,370.181:242.0482:371.1827|370.181:371.1827:242.0484|242.0485:370.181:243.0509|196.0058:242.0485:243.0509|196.0058:242.048:214.0164;242.0482:112.1121:155.1179|370.1802:242.0502:277.1769|370.1797:242.048:112.112|242.0484:112.1122:370.181|242.0481:196.0063:112.1121|196.0063:242.0479:112.1121|196.0063:149.0471:168.0114|370.1799:242.0503:196.007|370.1799:242.0481:112.1121|242.0484:112.1122:370.1795|242.0484:196.0064:112.1121|196.0064:242.048:112.1121|196.0064:149.0472:168.0114|242.0481:112.1121:155.1179,277.1769;243.0509;242.0482;214.0164;196.0063;168.0114;155.1179;149.04715;112.1121,Athens_Univ;Eawag,EA285251|EA285252|EA285253|EA285254|EA285255|EA285256|EA285258|EA285259|EA285260|EA285264,[M-H]-,CID35|HCD15|HCD30|HCD45|HCD60|HCD75|HCD15|HCD30|HCD45|CID35,340.1335:184.0437:186.0229|368.1661|368.1658:184.0432:156.0123|276.1733:340.1332:184.0438|134.0243:163.0519|134.0242|368.1646|368.1642:340.133:184.0437|276.1733:184.0437:156.0124|340.1338:184.0436:186.0228,368.1652;340.13335;276.1733;186.02285;184.0437;163.0519;156.01235;134.02425,Eawag
stpQQR1045,"Clopidogrel carboxylic acid|2-(2-chlorophenyl)-2-(6,7-dihydro-4H-thieno[3,2-c]pyridin-5-yl)acetic acid",C1CN(CC2=C1SC=C2)C(C3=CC=CC=C3Cl)C(=O)O,307.0434,C15H14ClNO2S,"InChI=1S/C15H14ClNO2S/c16-12-4-2-1-3-11(12)14(15(18)19)17-7-5-13-10(9-17)6-8-20-13/h1-4,6,8,14H,5,7,9H2,(H,18,19)",CAS_RN: 144457-28-3,4129546,DCASRSISIKYPDD-UHFFFAOYSA-N,3342490,NA,Positive/Negative,EA285401|EA285402|EA285403|EA285404|EA285405|EA285406|EA285407|EA285408|EA285409|EA285410|EA285411|EA285412|EA285413|EA285414,[M+H]+,CID35|HCD15|HCD30|HCD45|HCD60|HCD75|HCD90|HCD15|HCD30|HCD45|HCD60|HCD75|HCD90|CID35,198.0319:170.0368:152.0262|308.051:198.0316:152.0264|198.0318:308.0508:152.0263|198.0317:152.0264:169.0053|169.0054:141.0104:152.0264|141.0103:125.0154:169.0052|141.0103:113.0154:125.0155|308.0511:198.0315:152.0261|198.0318:152.0262:308.0507|198.0317:152.0263:169.0052|169.0052:141.0103:125.0154|141.0103:125.0153:169.0051|113.0153:125.0153:141.0103|198.0317:170.0368:152.0262,198.0317;170.0368;169.0052;152.0263;141.0103;125.0154;113.01535,Eawag,EA285451|EA285464,[M-H]-,CID35|CID35,262.0463|262.0463,262.0463,Eawag
stpQQR1046,Dronedarone|N-[2-butyl-3-[4-[3-(dibutylamino)propoxy]benzoyl]-1-benzofuran-5-yl]methanesulfonamide,CS(=O)(=O)Nc1cc2c(c(oc2cc1)CCCC)C(c1ccc(cc1)OCCCN(CCCC)CCCC)=O,556.2971,C31H44N2O5S,"InChI=1S/C31H44N2O5S/c1-5-8-12-29-30(27-23-25(32-39(4,35)36)15-18-28(27)38-29)31(34)24-13-16-26(17-14-24)37-22-11-21-33(19-9-6-2)20-10-7-3/h13-18,23,32H,5-12,19-22H2,1-4H3",CAS_RN: 141626-36-0,208898,ZQTNQVWKHCQYLQ-UHFFFAOYSA-N,180996,DTXSID3048653,Positive/Negative,AU218101|AU218102|AU218103|AU218104|AU218105;EA285501|EA285502|EA285503|EA285504|EA285505|EA285506|EA285507|EA285508|EA285509|EA285510|EA285511|EA285512|EA285513|EA285514,[M+H]+;[M+H]+,CID10|CID20|CID30|CID40|CID50;CID35|HCD15|HCD30|HCD45|HCD60|HCD75|HCD90|HCD15|HCD30|HCD45|HCD60|HCD75|HCD90|CID35,557.3094:558.3122:559.3114|557.3067:557.3114:558.3119|557.3114:435.2669:170.1909|557.3096:558.3117:435.2676|142.1595:435.2674:557.3086;435.2641:501.2415:294.0793|557.3043:558.3064:435.2713|557.3041:435.2633:558.3065|100.1122:142.1591:58.0652|100.1121:58.0651:142.159|58.0651:100.1121:114.1277|58.0651:100.112:121.0284|557.3048:558.307:435.2713|557.3045:558.307:435.2636|100.1121:142.1591:58.0651|100.112:58.0651:142.159|100.1121:58.0651:114.1276|58.0651:100.112:121.0283|435.264:501.241:294.0792,501.24125;435.2669;294.07925;170.1909;142.1591;121.02835;114.12765;100.1121;58.0651,Athens_Univ;Eawag,AU218151|AU218152|AU218153|AU218154|AU218155,[M-H]-,CID10|CID20|CID30|CID40|CID50,555.2842:556.2837|555.2845:556.2851|555.2825:556.2852|555.2802:556.2833|308.1249:356.0575:555.2861,555.2842;356.0575;308.1249,Athens_Univ
stpQQR1047,"Levamisole|(6S)-6-phenyl-2,3,5,6-tetrahydroimidazo[2,1-b][1,3]thiazole",c1([C@H]2CN3CCSC3=N2)ccccc1,204.0721,C11H12N2S,"InChI=1S/C11H12N2S/c1-2-4-9(5-3-1)10-8-13-6-7-14-11(13)12-10/h1-5,10H,6-8H2/t10-/m1/s1",CAS_RN: 14769-73-4,26879,HLFSDGLLUJUHTE-SNVBAGLBSA-N,25037,DTXSID4023206,Positive,AU117201|AU117202|AU117203|AU117204|AU117205;EA285701|EA285702|EA285703|EA285704|EA285705|EA285706|EA285707|EA285708|EA285709|EA285710|EA285711|EA285712|EA285713|EA285714,[M+H]+;[M+H]+,CID10|CID20|CID30|CID40|CID50;CID35|HCD15|HCD30|HCD45|HCD60|HCD75|HCD90|HCD15|HCD30|HCD45|HCD60|HCD75|HCD90|CID35,205.0766:206.0804:207.0722|205.0762:178.0588:206.0792|178.0585:205.0758:123.0209|178.0585:123.0208:130.0575|130.0575:128.0539:117.0492;178.0688:205.0798:145.0762|205.0796|205.0797:178.0689:91.0539|205.0796:178.0685:146.0964|205.0796:178.0687:146.0966|178.0686:205.0794:123.0263|178.0686:91.0543:123.0264|205.0795|205.0795:178.0693|205.0795:178.0685:146.0965|205.0796:178.0687:146.0965|178.0686:205.0796:123.0264|178.0686:91.0543:123.0263|178.0686:205.0795:145.0761,178.0686;146.0965;145.07615;130.0575;128.0539;123.0263;117.0492;91.0543,Athens_Univ;Eawag,NA,NA,NA,NA,NA,NA
stpQQR1048,"Pravastatin| (3R,5R)-7-[(1S,2S,6S,8S,8aR)-2-methyl-8-[(2S)-2-methylbutanoyl]oxy-6-oxidanyl-1,2,6,7,8,8a-hexahydronaphthalen-1-yl]-3,5-bis(oxidanyl)heptanoic acid",CCC(C)C(=O)OC1CC(C=C2C1C(C(C=C2)C)CCC(CC(CC(=O)O)O)O)O,424.2461,C23H36O7,"InChI=1S/C23H36O7/c1-4-13(2)23(29)30-20-11-17(25)9-15-6-5-14(3)19(22(15)20)8-7-16(24)10-18(26)12-21(27)28/h5-6,9,13-14,16-20,22,24-26H,4,7-8,10-12H2,1-3H3,(H,27,28)/t13-,14-,16+,17+,18+,19-,20-,22-/m0/s1",CAS_RN: 81093-37-0,54687,TUZYXOIXSAXUGO-PZAWKZKUSA-N,49398,DTXSID6023498,Negative,NA,NA,NA,NA,NA,NA,SM855853;EA285951|EA285952|EA285953|EA285954|EA285955|EA285956|EA285957|EA285958|EA285959|EA285960|EA285961|EA285962|EA285963|EA285964,[M-H]-;[M-H]-,HCD35;CID35|HCD15|HCD30|HCD45|HCD60|HCD75|HCD90|HCD15|HCD30|HCD45|HCD60|HCD75|HCD90|CID35,423.239:321.1707:303.1602;303.1598:321.1704:285.1493|423.239:321.1704:303.1606|101.0608:303.1595:321.1705|101.0607:59.0138:85.0299|101.0608:59.0141:85.0296|101.0607:59.014|101.0609:59.0137|423.2383:321.1707:303.1598|101.0607:303.16:321.1702|101.0606:59.0138:85.0292|101.0606:59.0138:85.0297|101.0607:59.0138|101.0606|303.1597:321.1701:285.1493,423.239;321.1704;303.1598;285.1493;101.0607;85.02965;59.0138,CASMI_2016;Eawag
stpQQR1049,"Trimipramine|3-(5,6-dihydrobenzo[b][1]benzazepin-11-yl)-N,N,2-trimethyl-1-propanamine",CC(CN1C2=CC=CC=C2CCC3=CC=CC=C31)CN(C)C,294.2096,C20H26N2,"InChI=1S/C20H26N2/c1-16(14-21(2)3)15-22-19-10-6-4-8-17(19)12-13-18-9-5-7-11-20(18)22/h4-11,16H,12-15H2,1-3H3",CAS_RN: 739-71-9,5584,ZSCDBOWYZJWBIY-UHFFFAOYSA-N,5382,DTXSID8023715,Positive,EA286101|EA286102|EA286103|EA286104|EA286105|EA286106|EA286107|EA286108|EA286109|EA286110|EA286111|EA286112|EA286113|EA286114,[M+H]+,CID35|HCD15|HCD30|HCD45|HCD60|HCD75|HCD90|HCD15|HCD30|HCD45|HCD60|HCD75|HCD90|CID35,100.1121:250.1591:208.1119|295.217:100.1121:208.1128|100.1122:295.2164:58.0651|100.1121:58.0651:208.1121|100.1121:58.0651:208.1121|58.0651:100.1121:193.0886|58.0651:193.0885:100.1121|295.2171:100.112:58.0648|100.1121:295.2174:58.0651|100.1121:58.0651:208.1119|100.1121:58.0651:208.112|58.0651:100.1121:193.0886|58.0651:193.0885:100.1121|100.1121:250.1588:208.1119,250.15895;208.112;193.08855;100.1121;58.0651,Eawag,NA,NA,NA,NA,NA,NA
stpQQR1050,"2',3'-di-O-acetyl-5'-deoxy-5-fluorocytidine",FC=1\C(=N/C(=O)N(C=1)[C@@H]2O[C@@H]([C@@H](OC(=O)C)[C@H]2OC(=O)C)C)\N,329.1023,C13H16FN3O6,"InChI=1S/C13H16FN3O6/c1-5-9(22-6(2)18)10(23-7(3)19)12(21-5)17-4-8(14)11(15)16-13(17)20/h4-5,9-10,12H,1-3H3,(H2,15,16,20)/t5-,9-,10-,12-/m1/s1",CAS_RN: 161599-46-8,11809635,NWJBWNIUGNXJGO-RPULLILYSA-N,9984300,DTXSID40167207,Positive,EA286201|EA286202|EA286203|EA286204|EA286205|EA286206|EA286207|EA286208|EA286209|EA286210|EA286211|EA286212|EA286213|EA286214,[M+H]+,CID35|HCD15|HCD30|HCD45|HCD60|HCD75|HCD90|HCD15|HCD30|HCD45|HCD60|HCD75|HCD90|CID35,201.0758:99.044:130.041|99.0441:201.076:141.0545|99.044:201.0758:141.0544|99.044:71.0491|99.044:71.0493|99.044:71.0491|71.0489|99.044:201.0755:141.0545|99.044:71.0493:201.0764|99.044:71.0493|99.044:71.0492|99.044|99.044:71.0492|201.0755:99.044:130.0411,201.0758;141.0545;130.04105;99.044;71.0492,Eawag,NA,NA,NA,NA,NA,NA
stpQQR1051,"Iobitridol|1,3-Benzenedicarboxamide, N,N'-bis(2,3-dihydroxypropyl)-5-((5-hydroxy-2-(hydroxymethyl)-1-oxopropyl)amino)-2,4,6-triiodo-N,N'-dimethyl-|1-N,3-N-bis(2,3-dihydroxypropyl)-5-[[3-hydroxy-2-(hydroxymethyl)propanoyl]amino]-2,4,6-triiodo-1-N,3-N-dimethylbenzene-1,3-dicarboxamide",Ic1c(c(I)c(c(I)c1NC(=O)C(CO)CO)C(=O)N(CC(O)CO)C)C(=O)N(CC(O)CO)C,834.896,C20H28I3N3O9,"InChI=1S/C20H28I3N3O9/c1-25(3-10(31)7-29)19(34)12-14(21)13(20(35)26(2)4-11(32)8-30)16(23)17(15(12)22)24-18(33)9(5-27)6-28/h9-11,27-32H,3-8H2,1-2H3,(H,24,33)",CAS_RN: 136949-58-1,65985,YLPBXIKWXNRACS-UHFFFAOYSA-N,59379,DTXSID90869865,Positive,EA289801|EA289802|EA289803|EA289804|EA289805|EA289806|EA289807|EA289808|EA289809|EA289810|EA289811|EA289812|EA289813|EA289814,[M+H]+,CID35|HCD15|HCD30|HCD45|HCD60|HCD75|HCD90|HCD15|HCD30|HCD45|HCD60|HCD75|HCD90|CID35,733.8714:817.8926:715.861|835.9059:602.9128:293.8858|602.912:474.9993:400.9995|400.9992:343.9414:497.834|170.0237:285.9359:313.9306|170.0236:101.9974:285.9363|101.9976:114.034:170.0234|835.9044:602.9129:293.896|602.9118:474.9996:400.9993|400.9991:497.8327:554.8906|170.0237:313.9311:285.9361|170.0235:101.9974:285.9363|101.9974:293.9003:114.0337|733.8716:817.8929:715.8609,817.89275;733.8715;715.86095;602.9124;554.8906;497.83335;474.99945;400.99925;343.9414;313.93085;293.89815;293.8858;285.9362;170.0236;114.03385;101.9974,Eawag,NA,NA,NA,NA,NA,NA
stpQQR1052,Citalopram|1-[3-(dimethylamino)propyl]-1-(4-fluorophenyl)-3H-2-benzofuran-5-carbonitrile,Fc1ccc(cc1)C3(OCc2cc(C#N)ccc23)CCCN(C)C,324.1638,C20H21FN2O,"InChI=1S/C20H21FN2O/c1-23(2)11-3-10-20(17-5-7-18(21)8-6-17)19-9-4-15(13-22)12-16(19)14-24-20/h4-9,12H,3,10-11,14H2,1-2H3",CAS_RN: 59729-33-8,2771,WSEQXVZVJXJVFP-UHFFFAOYSA-N,2669,DTXSID8022826,Positive,AU151301|AU151302|AU151303|AU151304|AU151305;EA290101|EA290102|EA290103|EA290104|EA290105|EA290106|EA290107|EA290108|EA290109|EA290110|EA290111|EA290112|EA290113|EA290114;UF411801|UF411802|UF411803|UF411804,[M+H]+;[M+H]+;[M+H]+,CID10|CID20|CID30|CID40|CID50;CID35|HCD15|HCD30|HCD45|HCD60|HCD75|HCD90|HCD15|HCD30|HCD45|HCD60|HCD75|HCD90|CID35;HCD55|HCD80|CID35|CID55,325.1715:326.1748:327.1772|325.1711:262.1019:326.174|262.102:234.0698:325.17|234.0709:247.0788:166.0641|247.0777:227.0725:166.0642;262.1028:109.0448:280.1131|325.1713:109.0444|325.1711:262.1026:109.0448|109.0448:262.1025:325.1713|109.0449:234.0715:247.0792|109.0448:247.0791:234.0712|109.0449:246.0713:116.0495|325.1712|325.1711:262.1025:109.0447|109.0448:262.1024:325.1705|109.0448:234.0712:247.079|109.0448:247.079:234.0712|109.0448:246.0712:116.0495|262.1026:109.0448:280.113;109.0449:234.0718:262.1031|109.0448:246.0715:247.0793|262.1031:325.1716:109.0449|262.1029:109.0448:280.1135,280.1131;262.1026;247.079;246.0713;234.0712;227.0725;166.06415;116.0495;109.0448,Athens_Univ;Eawag;UFZ,NA,NA,NA,NA,NA,NA
stpQQR1053,"Spironolactone| S-[(7R,8R,9S,10R,13S,14S,17R)-10,13-dimethyl-3,5'-bis(oxidanylidene)spiro[2,6,7,8,9,11,12,14,15,16-decahydro-1H-cyclopenta[a]phenanthrene-17,2'-oxolane]-7-yl] ethanethioate",O=C5O[C@@]4([C@@]3([C@H]([C@@H]2[C@H](SC(=O)C)C/C1=C/C(=O)CC[C@]1(C)[C@H]2CC3)CC4)C)CC5,416.2021,C24H32O4S,"InChI=1S/C24H32O4S/c1-14(25)29-19-13-15-12-16(26)4-8-22(15,2)17-5-9-23(3)18(21(17)19)6-10-24(23)11-7-20(27)28-24/h12,17-19,21H,4-11,13H2,1-3H3/t17-,18-,19+,21+,22-,23-,24+/m0/s1",CAS_RN: 52-01-7,5833,LXMSZDCAJNLERA-ZHYRCANASA-N,5628,DTXSID6034186,Positive,EA290202|EA290208,[M+H]+,HCD15|HCD15,417.2098|417.2086,,Eawag,NA,NA,NA,NA,NA,NA
stpQQR1054,"Sitagliptin|(3R)-3-amino-1-[3-(trifluoromethyl)-6,8-dihydro-5H-[1,2,4]triazolo[4,3-a]pyrazin-7-yl]-4-(2,4,5-trifluorophenyl)-1-butanone",Fc1cc(c(F)cc1F)C[C@@H](N)CC(=O)N3Cc2nnc(n2CC3)C(F)(F)F,407.1181,C16H15F6N5O,"InChI=1S/C16H15F6N5O/c17-10-6-12(19)11(18)4-8(10)3-9(23)5-14(28)26-1-2-27-13(7-26)24-25-15(27)16(20,21)22/h4,6,9H,1-3,5,7,23H2/t9-/m1/s1",CAS_RN: 486460-32-6,4369359,MFFMDFFZMYYVKS-SECBINFHSA-N,3571948,DTXSID70197572,Positive,AU225701|AU225702|AU225703|AU225704|AU225705;EA290301|EA290302|EA290303|EA290304|EA290305|EA290306|EA290307|EA290308|EA290309|EA290310|EA290311|EA290312|EA290313|EA290314,[M+H]+;[M+H]+,CID10|CID20|CID30|CID40|CID50;CID35|HCD15|HCD30|HCD45|HCD60|HCD75|HCD90|HCD15|HCD30|HCD45|HCD60|HCD75|HCD90|CID35,408.1285:409.1317:235.0813|235.0815:408.1282:174.0528|174.0534:193.0711:235.0815|174.0533:193.0708:235.0814|174.0529:127.0357:193.0703;235.0804:193.0696:391.0988|408.1255:235.0802:193.0695|235.0801:174.0525:193.0695|174.0527:193.0696:235.0802|174.0526:193.0695:154.0463|127.0354:174.0525:154.0463|127.0354:154.0463:174.0525|408.1255:235.0798:193.0692|235.0802:174.0526:193.0696|174.0526:193.0696:235.08|174.0525:193.0695:154.0463|127.0355:174.0526:154.0464|127.0354:154.0463:174.0525|235.0802:193.0696:391.0986,391.0987;235.0802;193.0696;174.0526;154.0463;127.0354,Athens_Univ;Eawag,NA,NA,NA,NA,NA,NA
stpQQR1055,Perfluorooctane sulfonamidoacetic acid|{[(heptadecafluorooctyl)sulfonyl]amino}acetic acid|FOSAA,FC(F)(C(F)(F)C(F)(F)C(F)(F)C(F)(F)C(F)(F)C(F)(F)C(F)(F)F)S(=O)(=O)NCC(O)=O,556.959,C10H4F17NO4S,"InChI=1S/C10H4F17NO4S/c11-3(12,5(15,16)7(19,20)9(23,24)25)4(13,14)6(17,18)8(21,22)10(26,27)33(31,32)28-1-2(29)30/h28H,1H2,(H,29,30)",CAS_RN: NA,10507011,AYLOUUCBACYHAB-UHFFFAOYSA-N,8682412,DTXSID40440941,Negative,NA,NA,NA,NA,NA,NA,EA291951|EA291954|EA291955|EA291958|EA291959|EA291960|EA291961|EA291962,[M-H]-,CID35|HCD45|HCD60|HCD15|HCD30|HCD45|HCD60|HCD75,497.9459:418.9733:218.986|168.9894|77.9653|555.9515|218.9859:555.9537|168.9892:77.9654|555.9528:77.9654|555.9523,555.95255;497.9459;418.9733;218.98595;168.9893;77.9654,Eawag
stpQQR1056,N-methylperfluorooctane sulfonamidoacetic acid|N-[(Heptadecafluorooctyl)sulfonyl]-N-methylglycine,FC(F)(C(F)(F)C(F)(F)C(F)(F)C(F)(F)C(F)(F)C(F)(F)C(F)(F)F)S(=O)(=O)N(C)CC(O)=O,570.9746,C11H6F17NO4S,"InChI=1S/C11H6F17NO4S/c1-29(2-3(30)31)34(32,33)11(27,28)9(22,23)7(18,19)5(14,15)4(12,13)6(16,17)8(20,21)10(24,25)26/h2H2,1H3,(H,30,31)",CAS_RN: NA,22286931,QNDHIRFIMVNHBN-UHFFFAOYSA-N,11316301,DTXSID10624392,Negative,NA,NA,NA,NA,NA,NA,EA292051|EA292053,[M-H]-,CID35|HCD30,418.9726:482.9345:511.9607|218.9862:168.9892,511.9607;482.9345;418.9726;218.9862;168.9892,Eawag
stpQQR1057,"N-Ethylperfluorooctane sulfonamidoacetic acid| 2-[ethyl(1,1,2,2,3,3,4,4,5,5,6,6,7,7,8,8,8-heptadecafluorooctylsulfonyl)amino]acetic acid",FC(F)(C(F)(F)C(F)(F)C(F)(F)C(F)(F)C(F)(F)C(F)(F)C(F)(F)F)S(=O)(=O)N(CC(O)=O)CC,584.9903,C12H8F17NO4S,"InChI=1S/C12H8F17NO4S/c1-2-30(3-4(31)32)35(33,34)12(28,29)10(23,24)8(19,20)6(15,16)5(13,14)7(17,18)9(21,22)11(25,26)27/h2-3H2,1H3,(H,31,32)",CAS_RN: 1336-61-4,18134,CKRXVVGETMYFIO-UHFFFAOYSA-N,17128,DTXSID5062760,Negative,NA,NA,NA,NA,NA,NA,EA292151|EA292153|EA292158|EA292159|EA292160,[M-H]-,CID35|HCD30|HCD15|HCD30|HCD45,418.9727:482.9347:525.9766|218.9856:168.9896|525.9781|218.9856:168.9894:268.9818|168.989,525.97735;482.9347;418.9727;268.9818;218.9856;168.9894,Eawag
stpQQR1058,"Bisperfluorooctyl phosphate|6:2diPAP|Bis(1H,1H,2H,2H-perfluorooctyl)phosphate",FC(F)(CCOP(=O)(OCCC(F)(F)C(F)(F)C(F)(F)C(F)(F)C(F)(F)C(F)(F)F)O)C(F)(F)C(F)(F)C(F)(F)C(F)(F)C(F)(F)F,789.9823,C16H9F26O4P,"InChI=1/C16H9F26O4P/c17-5(18,7(21,22)9(25,26)11(29,30)13(33,34)15(37,38)39)1-3-45-47(43,44)46-4-2-6(19,20)8(23,24)10(27,28)12(31,32)14(35,36)16(40,41)42/h1-4H2,(H,43,44)",CAS_RN: NA,14550408,ZDYYWMSLMLTXDM-UHFFFAOYSA-N,10330029,DTXSID50561590,Positive,EA292201|EA292202|EA292203|EA292204|EA292205|EA292206|EA292207|EA292208|EA292209|EA292210|EA292211|EA292212|EA292213|EA292214,[M+H]+,CID35|HCD15|HCD30|HCD45|HCD60|HCD75|HCD90|HCD15|HCD30|HCD45|HCD60|HCD75|HCD90|CID35,444.9852|790.9876|98.9839:444.9853|98.9839|98.9838|98.9839|98.9839|790.9868|98.9839:444.9857|98.9839|98.9839|98.9838|98.9839|444.9853,444.9853;98.9839,Eawag,NA,NA,NA,NA,NA,NA
stpQQR1059,"Bisperfluorodecyl phosphate|8:2diPAP|Bis(1H,1H,2H,2H-perfluorodecyl)phosphate",FC(F)(CCOP(=O)(OCCC(F)(F)C(F)(F)C(F)(F)C(F)(F)C(F)(F)C(F)(F)C(F)(F)C(F)(F)F)O)C(F)(F)C(F)(F)C(F)(F)C(F)(F)C(F)(F)C(F)(F)C(F)(F)F,989.9696,C20H9F34O4P,"InChI=1S/C20H9F34O4P/c21-5(22,7(25,26)9(29,30)11(33,34)13(37,38)15(41,42)17(45,46)19(49,50)51)1-3-57-59(55,56)58-4-2-6(23,24)8(27,28)10(31,32)12(35,36)14(39,40)16(43,44)18(47,48)20(52,53)54/h1-4H2,(H,55,56)",CAS_RN: 678-41-1,3022253,AFWOYEYXUDHGHF-UHFFFAOYSA-N,2288808,DTXSID90218051,Positive,EA292301|EA292303|EA292304|EA292305|EA292306|EA292307|EA292309|EA292310|EA292311|EA292312|EA292313|EA292314,[M+H]+,CID35|HCD30|HCD45|HCD60|HCD75|HCD90|HCD30|HCD45|HCD60|HCD75|HCD90|CID35,544.9781|98.984|98.9839|98.984|98.9839|98.9839|98.9839|98.9839:325.9467|98.9839:325.9579|98.9839:325.947|98.9839|544.9787:325.9584,544.9784;325.95815;325.94685;98.9839,Eawag,NA,NA,NA,NA,NA,NA
stpQQR1060,"Perfluorooctyl phosphate|6:2PAP|1H,1H,2H,2H-perfluorooctyllphosphate",O=P(O)(OCCC(F)(F)C(F)(F)C(F)(F)C(F)(F)C(F)(F)C(F)(F)F)O,443.9796,C8H6F13O4P,"InChI=1/C8H6F13O4P/c9-3(10,1-2-25-26(22,23)24)4(11,12)5(13,14)6(15,16)7(17,18)8(19,20)21/h1-2H2,(H2,22,23,24)",CAS_RN: NA,NA,FZTRDYSPWWJCOF-UHFFFAOYSA-N,28290256,DTXSID90558000,Positive/Negative,EA292402|EA292403|EA292404|EA292405|EA292406|EA292407|EA292408|EA292409|EA292410|EA292411|EA292412|EA292413,[M+H]+,HCD15|HCD30|HCD45|HCD60|HCD75|HCD90|HCD15|HCD30|HCD45|HCD60|HCD75|HCD90,444.9854:98.9838|98.9838:444.9854|98.9838|98.9839:80.9734|98.9839:80.9734|98.9839:80.9734|444.9854:98.9839|98.9838:444.9856|98.9838|98.9839:80.9734|98.9838:80.9733|98.9838:80.9732,98.9838;80.9734,Eawag,EA292451|EA292452|EA292453|EA292454|EA292456|EA292458|EA292459|EA292460|EA292461|EA292462,[M-H]-,CID35|HCD15|HCD30|HCD45|HCD75|HCD15|HCD30|HCD45|HCD60|HCD75,422.9653:442.9705|96.9693:442.9737|96.9695:78.9591|96.9694:78.9589|78.959:96.9696|96.9696:205.0149|96.9694:78.959|96.9695:78.9591:205.0148|96.9696:78.959|78.959:96.9695,442.9721;422.9653;205.01485;96.9695;78.959,Eawag
stpQQR1061,"Perfluorodecyl phosphate|8:2PAP|1H,1H,2H,2H-perfluorodecylphosphate",O=P(O)(OCCC(F)(F)C(F)(F)C(F)(F)C(F)(F)C(F)(F)C(F)(F)C(F)(F)C(F)(F)F)O,543.9732,C10H6F17O4P,"InChI=1/C10H6F17O4P/c11-3(12,1-2-31-32(28,29)30)4(13,14)5(15,16)6(17,18)7(19,20)8(21,22)9(23,24)10(25,26)27/h1-2H2,(H2,28,29,30)",CAS_RN: 576-16-9,10143739,MIABSAQIFYEDJP-UHFFFAOYSA-N,8319248,DTXSID60874027,Positive,EA292502|EA292503|EA292504|EA292505|EA292506|EA292507|EA292508|EA292509|EA292510|EA292511|EA292512|EA292513,[M+H]+,HCD15|HCD30|HCD45|HCD60|HCD75|HCD90|HCD15|HCD30|HCD45|HCD60|HCD75|HCD90,544.9795:98.9841|98.9839|98.9839|98.984|98.984|98.9839|544.9793:98.9841|98.9839|98.9839|98.9839|98.9839:80.9733|98.9839:80.9734,98.9839;80.97335,Eawag,NA,NA,NA,NA,NA,NA