NORMAN_ID,NAME,SMILES,NEUTRAL_EXACT_MASS,FORMULA,StdInChI,CAS_RN,PUBCHEM_CID,InChIKey,CHEMSPIDER_ID,DTXSID,Preferable Ionization,MB_Records Positive Ionization,Adduct Positive Ionization,Ionisation type and collision energy Positive Ionization,Fragments Positive Ionization,Simplified_fragments_Positive,Institute Positive Ionization,MB_Records Negative Ionization,Adduct Negative Ionization,Ionisation type and collision energy Negative Ionization,Fragments Negative Ionization,Simplified_fragments_Negative,Institute Negative Ionization
stpQQR803,"Roxithromycin|(3R,4S,5S,6R,7R,9R,10E,11S,12R,13S,14R)-6-[(2S,3R,4S,6R)-4-(dimethylamino)-3-hydroxy-6-methyl-tetrahydropyran-2-yl]oxy-14-ethyl-7,12,13-trihydroxy-4-[(2R,4R,5S,6S)-5-hydroxy-4-methoxy-4,6-dimethyl-tetrahydropyran-2-yl]oxy-10-(2-methoxyethoxymethyloximino)-3,5,7,9,11,13-hexamethyl-oxacyclotetradecan-2-one",CC[C@@H]1[C@@]([C@@H]([C@H](/C(=N/OCOCCOC)/[C@@H](C[C@@]([C@@H]([C@H]([C@@H]([C@H](C(=O)O1)C)O[C@H]2C[C@@]([C@H]([C@@H](O2)C)O)(C)OC)C)O[C@H]3[C@@H]([C@H](C[C@H](O3)C)N(C)C)O)(C)O)C)C)O)(C)O,836.5246,C41H76N2O15,"InChI=1S/C41H76N2O15/c1-15-29-41(10,49)34(45)24(4)31(42-53-21-52-17-16-50-13)22(2)19-39(8,48)36(58-38-32(44)28(43(11)12)18-23(3)54-38)25(5)33(26(6)37(47)56-29)57-30-20-40(9,51-14)35(46)27(7)55-30/h22-30,32-36,38,44-46,48-49H,15-21H2,1-14H3/b42-31+/t22-,23-,24+,25+,26-,27+,28+,29-,30+,32-,33+,34-,35+,36-,38+,39-,40-,41-/m1/s1",CAS_RN: 80214-83-1,6915744,RXZBMPWDPOLZGW-XMRMVWPWSA-N,5291557,NA,Positive,AU218501|AU218502|AU218503|AU218504|AU218505;EA019201|EA019202|EA019203|EA019204|EA019205|EA019206|EA019207|EA019208|EA019209|EA019210|EA019211|EA019212|EA019213|EA019214,[M+H]+;[M+H]+,CID10|CID20|CID30|CID40|CID50;CID35|HCD15|HCD30|HCD45|HCD60|HCD75|HCD90|HCD15|HCD30|HCD45|HCD60|HCD75|HCD90|CID35,837.5407:838.5444:839.5446|837.5402:679.443:838.5426|158.1184:679.4442:680.4467|158.1184:679.4431:159.1215|158.1184:159.1218:116.1074;679.4371:661.4272:430.2667|679.4356:158.1172:837.5287|158.1175:83.0491:116.1069|83.0491:158.1174:116.1068|83.0491:72.0807:98.0963|83.0491:72.0807:98.0965|83.049:72.0807:98.0964|679.4361:158.1173:837.5348|158.1173:83.049:116.1068|158.1174:83.0491:116.1068|83.049:72.0807:116.1069|83.049:72.0807:98.0963|83.0491:72.0807:98.0962|679.4366:661.4291,680.4467;679.4371;661.42815;430.2667;159.12165;158.1174;116.10685;98.0963;83.0491;72.0807,Athens_Univ;Eawag,NA,NA,NA,NA,NA,NA
stpQQR804,"Carbamazepine|5H-Dibenz[b,f]azepine-5-carboxamide|11-benzo[b][1]benzazepinecarboxamide",N1(c2c(cccc2)C=Cc2c1cccc2)C(N)=O,236.095,C15H12N2O,"InChI=1S/C15H12N2O/c16-15(18)17-13-7-3-1-5-11(13)9-10-12-6-2-4-8-14(12)17/h1-10H,(H2,16,18)",CAS_RN: 298-46-4,2554,FFGPTBGBLSHEPO-UHFFFAOYSA-N,2457,DTXSID4022731,Positive,AU112001|AU112002|AU112003|AU112004|AU112005;EA019401|EA019402|EA019403|EA019404|EA019405|EA019406|EA019407|EA019408|EA019409|EA019410|EA019411|EA019412|EA019413|EA019414;UA003001|UA003003,[M+H]+;[M+H]+;[M+H]+,CID10|CID20|CID30|CID40|CID50;CID35|HCD15|HCD30|HCD45|HCD60|HCD75|HCD90|HCD15|HCD30|HCD45|HCD60|HCD75|HCD90|CID35;CID35|CID35,237.102:238.1052:194.0964|194.0963:237.1021:192.0806|194.0958:193.0873:195.0994|194.0958:193.0882:192.0804|193.088:192.0803:165.0693;194.0963:220.0754:192.0807|237.1022:194.0961:192.0808|237.1022:194.0964:192.0807|194.0964:192.0807:237.1021|194.0963:192.0806:193.0883|194.0962:192.0807:193.0883|193.0884:194.0962:179.0728|237.1021:194.0961:192.0807|237.1022:194.0963:192.0806|194.0963:192.0806:237.1019|194.0964:192.0807:193.0885|194.0963:192.0806:193.0884|193.0884:194.0962:179.0727|194.0963:220.0754:192.0806;194.0965:220.076:192.0811|194.0964:220.0754:192.0809,220.0754;195.0994;194.0963;193.0883;192.0807;179.07275;165.0693,Athens_Univ;Eawag;UFZ_Additional_Specs,NA,NA,NA,NA,NA,NA
stpQQR805,"Primidone|Primaclone|5-ethyl-5-phenyl-1,3-diazinane-4,6-dione",c1(ccccc1)C2(C(=O)NCNC2=O)CC,218.1055,C12H14N2O2,"InChI=1S/C12H14N2O2/c1-2-12(9-6-4-3-5-7-9)10(15)13-8-14-11(12)16/h3-7H,2,8H2,1H3,(H,13,15)(H,14,16)",CAS_RN: 125-33-7,4909,DQMZLTXERSFNPB-UHFFFAOYSA-N,4740,DTXSID7023510,Positive,AU151606;SM850201;EA019501|EA019502|EA019503|EA019504|EA019505|EA019506|EA019507|EA019508|EA019509|EA019510|EA019511|EA019512|EA019513|EA019514;UF409501|UF409502|UF409503|UF409504,[M+H]+;[M+H]+;[M+H]+;[M+H]+,CIDRAMP 18.7-28.0;HCD35;CID35|HCD15|HCD30|HCD45|HCD60|HCD75|HCD90|HCD15|HCD30|HCD45|HCD60|HCD75|HCD90|CID35;HCD55|HCD80|CID35|CID55,162.0908:119.0848:91.054;162.0913:91.0542:119.0855;162.0915:174.0915:119.0855|219.1129:162.0914:174.0913|162.0914:119.0855:91.0542|91.0542:162.0912:119.0854|91.0542:117.0698:162.0912|91.0542:117.0699:106.0651|91.0542:117.0698:115.0542|219.1128:162.0913:174.0913|162.0913:119.0855:91.0542|162.0912:91.0542:119.0854|91.0542:117.0698:162.0913|91.0542:117.0698:106.065|91.0542:117.0698:115.0541|162.0913:174.0912:119.0854;91.0543:162.0916:117.07|91.0543:117.07:106.0652|162.0915:174.0915:119.0856|162.0916:174.0916:119.0857,174.0914;162.0913;119.0855;117.0698;115.05415;106.0651;91.0542,Athens_Univ;CASMI_2016;Eawag;UFZ,NA,NA,NA,NA,NA,NA
stpQQR806,"Ranitidine|1,1-Ethenediamine, N-(2-(((5-((dimethylamino)methyl)-2-furanyl)methyl)thio)ethyl)-N'-methyl-2-nitro-|1-N'-[2-[[5-(dimethylaminomethyl)furan-2-yl]methylsulfanyl]ethyl]-1-N-methyl-2-nitroethene-1,1-diamine",CN\C(NCCSCC1=CC=C(CN(C)C)O1)=C/[N+]([O-])=O,314.1413,C13H22N4O3S,"InChI=1S/C13H22N4O3S/c1-14-13(9-17(18)19)15-6-7-21-10-12-5-4-11(20-12)8-16(2)3/h4-5,9,14-15H,6-8,10H2,1-3H3/b13-9+",CAS_RN: 66357-35-5,5039,VMXUWOKSQNHOCA-UKTHLTGXSA-N,4863,NA,Positive/Negative,EA019601|EA019602|EA019603|EA019604|EA019605|EA019606|EA019607|EA019608|EA019609|EA019610|EA019611|EA019612|EA019613|EA019614;UF412101|UF412102|UF412103|UF412104,[M+H]+;[M+H]+,CID35|HCD15|HCD30|HCD45|HCD60|HCD75|HCD90|HCD15|HCD30|HCD45|HCD60|HCD75|HCD90|CID35;HCD55|HCD80|CID35|CID55,270.0906:176.0488:124.0756|315.1486:176.0484:270.0904|176.0488:130.0559:124.0756|176.0487:125.0055:102.0372|102.0372:125.0056:130.0558|102.0372:125.0055:81.0335|102.0371:81.0334:97.0759|315.1486:176.0486:270.0904|176.0488:130.0559:124.0757|176.0488:102.0372:125.0056|102.0372:125.0056:130.0558|102.0372:125.0056:81.0335|102.0372:81.0335:97.076|270.0908:176.0488:124.0757;102.0376:125.006:130.0564|102.0376:125.0061:81.0338|270.092:176.0497:124.0763|270.092:176.0497:124.0762,270.0907;176.0488;130.0559;125.0056;124.0757;102.0372;97.07595;81.0335,Eawag;UFZ,EA019651|EA019652|EA019653|EA019654|EA019655|EA019656|EA019657|EA019658|EA019659|EA019660|EA019661|EA019662|EA019664,[M-H]-,CID35|HCD15|HCD30|HCD45|HCD60|HCD75|HCD90|HCD15|HCD30|HCD45|HCD60|HCD75|CID35,142.0623:170.0646:116.0466|313.1338:142.0623:170.0646|170.0646:142.0624:116.0465|170.0644:111.9991:116.0467|111.9988:116.0466:60.0092|111.999:116.0471|111.9987|313.1337:142.0622:170.0645|170.0645:142.0622:116.0466|170.0647:111.9987:142.0622|111.9986:116.0465:60.0092|111.9988|142.0622:170.0644:116.0462,313.13375;170.06455;142.0622;116.0466;111.9988;60.0092,Eawag
stpQQR807,Metronidazole|2-Methyl-5-nitroimidazole-1-ethanol|2-(2-methyl-5-nitro-1-imidazolyl)ethanol,CC1=NC=C(N1CCO)[N+]([O-])=O,171.0644,C6H9N3O3,"InChI=1S/C6H9N3O3/c1-5-7-4-6(9(11)12)8(5)2-3-10/h4,10H,2-3H2,1H3",CAS_RN: 443-48-1,4173,VAOCPAMSLUNLGC-UHFFFAOYSA-N,4029,DTXSID2020892,Positive,AU106901;EA019701|EA019702|EA019703|EA019704|EA019705|EA019706|EA019707|EA019708|EA019709|EA019710|EA019711|EA019712|EA019713|EA019714,[M+H]+;[M+H]+,CID17.0-25.5;CID35|HCD15|HCD30|HCD45|HCD60|HCD75|HCD90|HCD15|HCD30|HCD45|HCD60|HCD75|HCD90|CID35,128.0458:172.0722:56.0364;128.0455:172.0718:82.0524|172.072:128.0454:82.0524|172.0718:128.0455:82.0523|128.0455:172.0717:82.0524|128.0456:82.0526:111.0427|128.0454:82.0526:111.0427|128.0455:82.0525:111.0426|172.0718:128.0455|172.0717:128.0455:82.0524|128.0455:172.0718:82.0525|128.0455:172.0716:82.0526|128.0455:82.0526:111.0427|128.0454:82.0526:111.0427|128.0455:172.0716:82.0525,128.0455;111.0427;82.0525;56.0364,Athens_Univ;Eawag,NA,NA,NA,NA,NA,NA
stpQQR808,"Trimethoprim|2,4-Diamino-5-(3,4,5-trimethoxybenzyl)pyrimidine|5-[(3,4,5-trimethoxyphenyl)methyl]pyrimidine-2,4-diamine",c1(Cc2c(nc(N)nc2)N)cc(c(OC)c(c1)OC)OC,290.1379,C14H18N4O3,"InChI=1S/C14H18N4O3/c1-19-10-5-8(6-11(20-2)12(10)21-3)4-9-7-17-14(16)18-13(9)15/h5-7H,4H2,1-3H3,(H4,15,16,17,18)",CAS_RN: 738-70-5,5578,IEDVJHCEMCRBQM-UHFFFAOYSA-N,5376,DTXSID3023712,Positive,EA019901|EA019902|EA019903|EA019904|EA019905|EA019906|EA019907|EA019908|EA019909|EA019910|EA019911|EA019912|EA019913|EA019914;UF410601|UF410602|UF410603|UF410604,[M+H]+;[M+H]+,CID35|HCD15|HCD30|HCD45|HCD60|HCD75|HCD90|HCD15|HCD30|HCD45|HCD60|HCD75|HCD90|CID35;HCD55|HCD80|CID35|CID55,230.1166:123.0667:261.0985|291.1456:230.1167|291.1456:123.0666:261.098|291.1451:261.0984:230.1164|261.0984:275.1139:230.1164|123.0666:261.0983:257.1035|123.0666:81.0448:229.1086|291.1455:261.0972|291.1455:123.0666:261.0981|291.1457:261.0983:230.1163|261.0984:275.114:123.0666|123.0667:261.0983:257.1035|123.0666:81.0448:229.1085|230.1165:123.0666:261.0984;261.0987:230.1166:275.1143|123.0667:229.1087:110.0588|291.1458:230.1167:123.0668|230.1166:123.0667:261.0987,275.114;261.0984;257.1035;230.1166;229.1086;123.0666;110.0588;81.0448,Eawag;UFZ,NA,NA,NA,NA,NA,NA
stpQQR809,"Diclofenac| 2-[2-(2,6-dichloroanilino)phenyl]acetic acid",c1c(c(ccc1)Nc1c(cccc1Cl)Cl)CC(=O)O,295.0167,C14H11Cl2N1O2,"InChI=1S/C14H11Cl2NO2/c15-10-5-3-6-11(16)14(10)17-12-7-2-1-4-9(12)8-13(18)19/h1-7,17H,8H2,(H,18,19)",CAS_RN: 15307-86-5,3033,DCOPUUMXTXDBNB-UHFFFAOYSA-N,2925,DTXSID6022923,Positive/Negative,AU114701|AU114702|AU114703|AU114704|AU114705;SM856902;EA020101|EA020102|EA020103|EA020104|EA020105|EA020106|EA020107|EA020108|EA020109|EA020110|EA020111|EA020112|EA020113|EA020114;UF409301|UF409302|UF409303|UF409304,[M+H]+;[M+H]+;[M+H]+;[M+H]+,CID10|CID20|CID30|CID40|CID50;HCD35;CID35|HCD15|HCD30|HCD45|HCD60|HCD75|HCD90|HCD15|HCD30|HCD45|HCD60|HCD75|HCD90|CID35;HCD55|HCD80|CID35|CID55,250.0152:296.019:278.0098|215.0481:250.0151:214.0338|215.0462:217.0431:216.0434|214.0339:216.0322:215.0379|214.0338:216.0315:215.0415;215.0495:214.0417:250.0185;278.0136:250.0183:215.049|296.024:278.0135:250.0185|215.0496:250.0183:214.0417|215.0498:214.0419:250.0183|214.042:215.0496:180.0805|214.0419:180.0807:215.0493|214.0419:179.0729:178.0649|296.0239:278.0132:250.0184|215.0498:250.0184:214.0417|215.0497:214.0418:250.0185|214.0418:215.0494:180.0807|214.0418:180.0806:215.0498|214.0418:178.065:179.0728|278.0135:250.0182:215.0493;214.042:215.0497:180.081|214.042:180.0809:215.0499|278.0138:250.0188:215.0499|278.0138:250.0188:215.0499,278.0135;250.0184;217.0431;216.0434;216.03185;215.0496;214.0418;180.0807;179.07285;178.06495,Athens_Univ;CASMI_2016;Eawag;UFZ,SM856951;EA020151|EA020152|EA020153|EA020154|EA020155|EA020156|EA020158|EA020159|EA020160|EA020161|EA020162|EA020163|EA020164;UF409351|UF409352|UF409353|UF409354,[M-H]-;[M-H]-;[M-H]-,HCD35;CID35|HCD15|HCD30|HCD45|HCD60|HCD75|HCD15|HCD30|HCD45|HCD60|HCD75|HCD90|CID35;HCD55|HCD80|CID35|CID55,250.0196:214.0429:294.0095;250.0198|250.0198:294.0094|250.0197:214.043|250.0198:214.0429:178.0669|214.043:178.0667|178.0666|250.0197:294.0092|250.0197:214.0429|250.0197:214.0431:178.0658|214.043:250.0192:178.0659|178.0661|178.0658:250.02|250.0198;250.0194:197.9606|197.96:250.0195|250.0195|250.0195,294.0094;250.0197;214.043;197.9603;178.0661,CASMI_2016;Eawag;UFZ
stpQQR810,Naproxen|2-(6-methoxy-2-naphthalenyl)propanoic acid,CC(C1=CC2=C(C=C1)C=C(C=C2)OC)C(=O)O,230.0943,C14H14O3,"InChI=1S/C14H14O3/c1-9(14(15)16)10-3-4-12-8-13(17-2)6-5-11(12)7-10/h3-9H,1-2H3,(H,15,16)",CAS_RN: 26159-31-9,1302,CMWTZPSULFXXJA-UHFFFAOYSA-N,1262,NA,Positive/Negative,SM854403;EA020201|EA020202|EA020203|EA020204|EA020205|EA020206|EA020207|EA020208|EA020209|EA020210|EA020211|EA020212|EA020213|EA020214;UF406601|UF406602|UF406603|UF406604,[M+H]+;[M+H]+;[M+H]+,HCD35;CID35|HCD15|HCD30|HCD45|HCD60|HCD75|HCD90|HCD15|HCD30|HCD45|HCD60|HCD75|HCD90|CID35;HCD55|HCD80|CID35|CID55,185.096:170.0725:231.1016;185.096|231.1016:185.0961|185.096:231.101|185.096:170.0725:158.0729|185.096:170.0725:154.078|170.0724:185.0961:153.0699|170.0727:154.0775:153.0699|231.1015:185.096|185.096:231.1014|185.096:158.0726:170.0725|185.0959:170.0724:153.0698|170.0724:185.0961:154.0775|170.0725:153.0698:141.0699|185.096;185.0963:170.0728:158.0728|170.0728:154.0779:153.0701|185.0963:189.1024:201.1018|185.0962:189.1024:201.1018,201.1018;189.1024;185.096;170.0725;158.0728;154.0777;153.0699;141.0699,CASMI_2016;Eawag;UFZ,EA020251|EA020264,[M-H]-,CID35|CID35,185.0974|185.0963,185.09685,Eawag
stpQQR811,Ibuprofen|(S)-(+)-Ibuprofen| (2S)-2-(4-isobutylphenyl)propionic acid,c1([C@@H](C(O)=O)C)ccc(CC(C)C)cc1,206.1307,C13H18O2,"InChI=1S/C13H18O2/c1-9(2)8-11-4-6-12(7-5-11)10(3)13(14)15/h4-7,9-10H,8H2,1-3H3,(H,14,15)/t10-/m0/s1",CAS_RN: 51146-56-6,39912,HEFNNWSXXWATRW-JTQLQIEISA-N,36498,DTXSID9048724,Positive/Negative,EA020301|EA020302|EA020303|EA020304|EA020305|EA020306|EA020307|EA020308|EA020309|EA020310|EA020311|EA020312|EA020314,[M+H]+,CID35|HCD15|HCD30|HCD45|HCD60|HCD75|HCD90|HCD15|HCD30|HCD45|HCD60|HCD75|CID35,161.1324:149.0959:189.127|161.1326:207.1372|161.1324:149.0954:105.07|161.1324:119.0854:105.0698|161.1323:119.0857:105.0701|119.0854:105.07:161.1328|105.07:91.0543:119.0855|161.1324|161.1325:207.1375:165.0903|161.1324:105.0699:119.0855|161.1325:119.0855:105.07|119.0856:105.0698:161.1325|161.1324:189.1272:189.091,189.1271;189.091;165.0903;161.1324;149.09565;119.0855;105.07;91.0543,Eawag,EA020351|EA020352|EA020358|EA020364,[M-H]-,CID35|HCD15|HCD15|CID35,159.118|159.1179|159.118|159.1181,159.118,Eawag
stpQQR812,Clofibric acid|2-(p-Chlorophenoxy)isobutyric acid| 2-(4-chloranylphenoxy)-2-methyl-propanoic acid,CC(C)(OC1=CC=C(Cl)C=C1)C(O)=O,214.0397,C10H11ClO3,"InChI=1S/C10H11ClO3/c1-10(2,9(12)13)14-8-5-3-7(11)4-6-8/h3-6H,1-2H3,(H,12,13)",CAS_RN: 882-09-7,2797,TXCGAZHTZHNUAI-UHFFFAOYSA-N,2695,DTXSID1040661,Positive/Negative,EA020401|EA020403|EA020404|EA020409|EA020411|EA020413,[M+H]+,CID35|HCD30|HCD45|HCD30|HCD60|HCD90,159.0308:169.0171:77.0384|159.0309:77.0385:105.0448|77.0387:105.045:95.0496|159.0301:77.0384:169.0171|105.0447:53.0385:77.0385|77.0384:53.0386:105.0446,169.0171;159.0308;105.04475;95.0496;77.03845;53.03855,Eawag,SM854751;EA020451|EA020452|EA020453|EA020454|EA020455|EA020456|EA020457|EA020458|EA020459|EA020460|EA020461|EA020462|EA020463,[M-H]-;[M-H]-,HCD35;CID35|HCD15|HCD30|HCD45|HCD60|HCD75|HCD90|HCD15|HCD30|HCD45|HCD60|HCD75|HCD90,126.9953:213.0325;126.9959:85.0297:213.0447|126.9955:213.0324:85.0296|126.9959:85.0297|126.9955:85.0296:213.0436|126.9957:85.0293|126.9957|126.9955|126.9956:213.032:85.0295|126.9957:85.0295|126.9959|126.9957:85.0296|126.9958|126.9954,213.0324;126.9957;85.0296,CASMI_2016;Eawag
stpQQR813,Ketoprofen|2-(3-benzoylphenyl)propanoic acid,CC(C1=CC=CC(=C1)C(=O)C2=CC=CC=C2)C(=O)O,254.0943,C16H14O3,"InChI=1S/C16H14O3/c1-11(16(18)19)13-8-5-9-14(10-13)15(17)12-6-3-2-4-7-12/h2-11H,1H3,(H,18,19)",CAS_RN: 22071-15-4,3825,DKYWVDODHFEZIM-UHFFFAOYSA-N,3693,DTXSID6020771,Positive/Negative,AU115001|AU115002|AU115003;SM856202;EA020501|EA020502|EA020503|EA020504|EA020505|EA020506|EA020507|EA020508|EA020509|EA020510|EA020511|EA020512|EA020513|EA020514;UF408601|UF408602|UF408603|UF408604,[M+H]+;[M+H]+;[M+H]+;[M+H]+,CID10|CID20|CID30;HCD35;CID35|HCD15|HCD30|HCD45|HCD60|HCD75|HCD90|HCD15|HCD30|HCD45|HCD60|HCD75|HCD90|CID35;HCD55|HCD80|CID35|CID55,255.0978:209.093:256.1003|209.0927:210.0959:177.0526|209.0923:177.0518:194.0688;209.0959:105.0334:255.1013;209.0962:105.0333:177.0546|255.1017:209.0961:105.0333|209.0962:105.0335:255.1016|105.0335:209.096:177.0547|105.0336:177.055:209.0961|105.0335:77.0386:103.0542|105.0334:77.0386:103.0542|255.1016:209.0961:105.0333|209.0962:105.0335:255.1015|105.0335:209.0962:177.0547|105.0335:177.0546:209.0961|105.0335:77.0386:103.0542|105.0335:77.0386:103.0542|209.0961:105.0335:177.0545;105.0335:209.0963:177.0548|105.0335:77.0386:103.0543|209.096:105.0334:177.0547|209.096:105.0335:177.0548,210.0959;209.0961;194.0688;177.0547;105.0335;103.0542;77.0386,Athens_Univ;CASMI_2016;Eawag;UFZ,SM856255;EA020551|EA020552|EA020553|EA020558|EA020559|EA020564;UF408653|UF408654,[M-H]-;[M-H]-;[M-H]-,HCD35;CID35|HCD15|HCD30|HCD15|HCD30|CID35;CID35|CID55,197.0608:209.0974:253.0872;209.0974:197.0611:185.0609|197.061:241.0869:185.0609|197.0611|197.0609:241.0866:185.061|197.0607|209.0974:197.061:185.0608;209.0966|209.0971,253.0872;241.08675;209.0974;197.061;185.0609,CASMI_2016;Eawag;UFZ
stpQQR814,Indomethacin| 2-[1-(4-chlorobenzoyl)-5-methoxy-2-methyl-indol-3-yl]acetic acid,COC1=CC2=C(C=C1)N(C(=O)C3=CC=C(Cl)C=C3)C(C)=C2CC(O)=O,357.0768,C19H16ClNO4,"InChI=1S/C19H16ClNO4/c1-11-15(10-18(22)23)16-9-14(25-2)7-8-17(16)21(11)19(24)12-3-5-13(20)6-4-12/h3-9H,10H2,1-2H3,(H,22,23)",CAS_RN: 53-86-1,3715,CGIGDMFJXJATDK-UHFFFAOYSA-N,3584,DTXSID9020740,Positive/Negative,SM861101;EA020701|EA020702|EA020703|EA020704|EA020705|EA020706|EA020707|EA020708|EA020709|EA020710|EA020711|EA020712|EA020713|EA020714,[M+H]+;[M+H]+,HCD35;CID35|HCD15|HCD30|HCD45|HCD60|HCD75|HCD90|HCD15|HCD30|HCD45|HCD60|HCD75|HCD90|CID35,138.9944:358.0841:174.0914;174.0915:138.9948:312.0788|358.0845:138.9947:174.0915|138.9945:174.0913:312.0782|138.9945:174.0912:110.9995|138.9945:139.0056:86.9996|138.9948:86.9997:110.9996|139.0057:138.9947:86.9997|358.0841:138.9946:174.0915|138.9946:174.0914:358.0853|138.9946:174.0914:86.9997|138.9946:139.006:86.9997|138.9946:139.0055:86.9996|139.0057:138.9947:86.9997|174.0914:138.9946:312.0785,312.0785;174.0914;139.0057;138.9946;110.99955;86.9997,CASMI_2016;Eawag,SM861152;EA020751|EA020752|EA020753|EA020754|EA020755|EA020756|EA020757|EA020758|EA020759|EA020760|EA020761|EA020762|EA020764,[M-H]-;[M-H]-,HCD35;CID35|HCD15|HCD30|HCD45|HCD60|HCD75|HCD90|HCD15|HCD30|HCD45|HCD60|HCD75|CID35,312.0797:282.0327:297.0561;312.0791|312.0801:270.068|297.0565:312.0788|158.0617:312.078|282.0336:158.061|158.0613|158.0613|312.0795:297.0557:270.0682|297.0561:312.0797:270.0688|158.061:297.0568:312.0773|282.0326:158.0611|158.061|312.0793,312.0793;297.0561;282.0327;270.0682;158.0611,CASMI_2016;Eawag