NORMAN_ID,NAME,SMILES,NEUTRAL_EXACT_MASS,FORMULA,StdInChI,CAS_RN,PUBCHEM_CID,InChIKey,CHEMSPIDER_ID,DTXSID,Preferable Ionization,MB_Records Positive Ionization,Adduct Positive Ionization,Ionisation type and collision energy Positive Ionization,Fragments Positive Ionization,Simplified_fragments_Positive,Institute Positive Ionization,MB_Records Negative Ionization,Adduct Negative Ionization,Ionisation type and collision energy Negative Ionization,Fragments Negative Ionization,Simplified_fragments_Negative,Institute Negative Ionization
stpQQR867,"Sulfamethoxazole|4-Amino-N-(5-methyl-3-isoxazolyl)benzenesulfonamide|4-amino-N-(5-methyl-1,2-oxazol-3-yl)benzenesulfonamide",c1(S(Nc2cc(C)on2)(=O)=O)ccc(N)cc1,253.0521,C10H11N3O3S1,"InChI=1S/C10H11N3O3S/c1-7-6-10(12-16-7)13-17(14,15)9-4-2-8(11)3-5-9/h2-6H,11H2,1H3,(H,12,13)",CAS_RN: 723-46-6,5329,JLKIGFTWXXRPMT-UHFFFAOYSA-N,5138,DTXSID8026064,Positive/Negative,AU101801|AU101802|AU101803|AU101804|AU101805|AU101806;SM856302;EA029801|EA029802|EA029803|EA029804|EA029805|EA029806|EA029807|EA029808|EA029809|EA029810|EA029811|EA029812|EA029813|EA029814;TUE00671|TUE00672|TUE00673,[M+H]+;[M+H]+;[M+H]+;[M+H]+,CID19.9-29.9|CID20|CID30|CID40|CID50|CID10;HCD35;CID35|HCD15|HCD30|HCD45|HCD60|HCD75|HCD90|HCD15|HCD30|HCD45|HCD60|HCD75|HCD90|CID35;NA10.0V|NA20.0V|NA40.0V,156.0119:108.046:254.0603|156.0101:254.0589:160.0855|156.0103:160.0858:147.078|156.011:146.0707:147.0778|146.0703:147.0773:119.0605|254.0592:156.0099:190.0964;254.0593:156.0113:108.0444;156.0115:188.082:147.0791|254.0597:156.0112:190.0978|254.0593:156.0114:108.0444|156.0115:108.0444:92.0495|108.0444:92.0495:156.0114|108.0444:92.0495:65.0386|92.0495:108.0444:65.0386|254.0596:156.0113:188.0821|254.0595:156.0114:108.0444|156.0114:108.0444:92.0495|108.0444:92.0495:156.0114|108.0444:92.0495:65.0386|92.0495:108.0444:65.0386|156.0114:188.0819:147.0791;254.0595:156.0113:188.0817|92.0494:108.0444:156.0112|92.0495:65.0387:108.0443,190.0971;188.08195;160.08565;156.01135;147.078;146.0705;119.0605;108.0444;92.0495;65.0386,Athens_Univ;CASMI_2016;Eawag;Env_Anal_Chem_U_Tuebingen,AU101851|AU101852|AU101853;EA029851|EA029852|EA029853|EA029854|EA029855|EA029856|EA029858|EA029859|EA029860|EA029861|EA029864;TUE00675|TUE00676|TUE00677,[M-H]-;[M-H]-;[M-H]-,CID10|CID20|CID30;CID35|HCD15|HCD30|HCD45|HCD60|HCD75|HCD15|HCD30|HCD45|HCD60|CID35;NA10.0V|NA20.0V|NA40.0V,156.0178:252.0506|156.0167|156.0161;156.0127:92.0505|252.0447:156.0125|156.0127:252.0454|156.0126:63.9625|156.0128:63.9625:92.0506|63.9625:92.0505:156.0121|252.0447:156.0122|156.0124|156.0126|156.0125:63.9623|156.0124;156.0124:252.0446:63.9623|156.0125:63.9622:92.0506|63.9623:92.0505:156.0123,252.0447;156.0125;92.0505;63.9623,Athens_Univ;Eawag;Env_Anal_Chem_U_Tuebingen
stpQQR868,"N4-Acetylsulfamethoxazole|N-[4-[(5-methyl-1,2-oxazol-3-yl)sulfamoyl]phenyl]acetamide",c1(ccc(cc1)NC(C)=O)S(Nc1cc(C)on1)(=O)=O,295.0627,C12H13N3O4S,"InChI=1S/C12H13N3O4S/c1-8-7-12(14-19-8)15-20(17,18)11-5-3-10(4-6-11)13-9(2)16/h3-7H,1-2H3,(H,13,16)(H,14,15)",CAS_RN: 21312-10-7,65280,GXPIUNZCALHVBA-UHFFFAOYSA-N,58771,DTXSID8049044,Positive/Negative,AU201401|AU201402|AU201403|AU201404|AU201405;SM859002;EA029901|EA029902|EA029903|EA029904|EA029905|EA029906|EA029907|EA029908|EA029909|EA029910|EA029911|EA029912|EA029913|EA029914;UF411701|UF411702|UF411703|UF411704,[M+H]+;[M+H]+;[M+H]+;[M+H]+,CID10|CID20|CID30|CID40|CID50;HCD35;CID35|HCD15|HCD30|HCD45|HCD60|HCD75|HCD90|HCD15|HCD30|HCD45|HCD60|HCD75|HCD90|CID35;HCD55|HCD80|CID35|CID55,296.0707:297.072:298.0664|198.0209:296.0696:134.0591|134.0591:198.0207:160.086|134.0591:146.0705:160.0863|134.0591:146.0705:160.0851;325.171:109.0448:262.1026;136.0756:188.0818:236.0487|296.0699:136.0755:236.0488|296.07:198.022:136.0757|134.06:108.0443:198.0217|134.06:108.0443:65.0385|65.0386:134.06:108.0443|65.0386:108.0443:92.0494|296.0702:198.0219:136.0757|296.0699:198.0219:136.0757|134.06:108.0443:198.0218|134.06:65.0386:108.0444|65.0386:134.0599:108.0443|65.0386:108.0444:92.0494|136.0757:188.0818:236.0487;134.0602:108.0445:160.0872|108.0444:134.0601:92.0495|198.0221:188.082:136.0758|198.0222:188.0821:136.0759,262.1026;236.0487;198.0219;188.0819;160.08615;146.0705;136.0757;134.06;109.0448;108.0443;92.0494;65.0386,Athens_Univ;CASMI_2016;Eawag;UFZ,AU201451|AU201452|AU201453|AU201454;EA029951|EA029952|EA029953|EA029954|EA029955|EA029956|EA029957|EA029958|EA029959|EA029960|EA029961|EA029962;UF411751|UF411752|UF411753|UF411754,[M-H]-;[M-H]-;[M-H]-,CID10|CID20|CID30|CID40;CID35|HCD15|HCD30|HCD45|HCD60|HCD75|HCD90|HCD15|HCD30|HCD45|HCD60|HCD75;HCD55|HCD80|CID35|CID55,294.0535:198.0219:295.0562|198.0219:134.0602:199.0253|134.0608:198.0222|134.06;198.0231:134.061:150.0558|294.0542:198.0232:205.0171|198.0228:134.0613|198.0231:134.0611:92.0506|134.0613:92.0507|134.0611:92.0506|92.0508:134.0613:198.0306|294.0551:198.0232|198.0231:294.0556:134.0612|198.0229:134.0611:294.0558|134.061:92.0504:198.0301|134.061:92.0505;198.0229|198.023:134.061|198.023:134.0611|198.023:134.0612,294.0551;205.0171;199.0253;198.023;150.0558;134.0611;92.0506,Athens_Univ;Eawag;UFZ
stpQQR869,"2-Octyl-3(2H)-isothiazolone|2-octyl-1,2-thiazol-3-one",n1(c(ccs1)=O)CCCCCCCC,213.1182,C11H19NOS,"InChI=1S/C11H19NOS/c1-2-3-4-5-6-7-9-12-11(13)8-10-14-12/h8,10H,2-7,9H2,1H3",CAS_RN: 26530-20-1,33528,JPMIIZHYYWMHDT-UHFFFAOYSA-N,30932,DTXSID1025805,Positive,SM821001;EA030001|EA030002|EA030003|EA030004|EA030005|EA030006|EA030007|EA030008|EA030009|EA030010|EA030011|EA030012|EA030013|EA030014,[M+H]+;[M+H]+,HCD35;CID35|HCD15|HCD30|HCD45|HCD60|HCD75|HCD90|HCD15|HCD30|HCD45|HCD60|HCD75|HCD90|CID35,102.0009:214.1261:71.0856;102.0008:71.0855|214.126:102.0009:71.0853|214.1261:102.0008:71.0855|102.0007:71.0855:57.0698|102.0008:57.0698:71.0855|102.0008:57.0698:71.0854|102.0008:57.0698:83.9904|214.1261:102.0008:71.0854|214.1261:102.0008:71.0855|102.0008:214.1259:71.0855|102.0008:57.0698:71.0855|102.0008:57.0698:71.0855|102.0008:57.0698:83.9903|102.0008:71.0855,102.0008;83.99035;71.0855;57.0698,CASMI_2016;Eawag,NA,NA,NA,NA,NA,NA
stpQQR870,"Benzisothiazolone (BIT)|1,2-Benzisothiazol-3(2H)-one|1,2-benzothiazol-3-one",c12c(cccc2)s[nH]c1=O,151.0092,C7H5NOS,"InChI=1S/C7H5NOS/c9-7-5-3-1-2-4-6(5)10-8-7/h1-4H,(H,8,9)",CAS_RN: 2634-33-5,17520,DMSMPAJRVJJAGA-UHFFFAOYSA-N,16567,DTXSID5032523,Positive/Negative,EA030101|EA030102|EA030103|EA030104|EA030105|EA030106|EA030107|EA030108|EA030109|EA030110|EA030111|EA030112|EA030113|EA030114,[M+H]+,CID35|HCD15|HCD30|HCD45|HCD60|HCD75|HCD90|HCD15|HCD30|HCD45|HCD60|HCD75|HCD90|CID35,109.0106:134.0062:152.0171|152.0163|152.0165:109.011|152.0165:109.0107:105.0336|152.0165:109.0107:134.0059|152.0164:109.0106:134.0059|152.0165:134.0059:109.0107|152.0165:134.0062|152.0165|152.0165:109.0107:134.0059|152.0165:109.0107:134.0059|152.0166:109.0107:134.006|152.0166:134.006:109.0108|109.0106:134.0055:152.0165,134.0059;109.0107;105.0336,Eawag,EA030152|EA030153|EA030154|EA030158|EA030159,[M-H]-,HCD15|HCD30|HCD45|HCD15|HCD30,150.0023|150.0017|150.0019|150.0019|150.0021:130.0174,150.0019;130.0174,Eawag
stpQQR871,"Irgarol|2-N-tert-butyl-4-N-cyclopropyl-6-methylsulfanyl-1,3,5-triazine-2,4-diamine",c1(nc(NC(C)(C)C)nc(n1)SC)NC1CC1,253.1356,C11H19N5S1,"InChI=1S/C11H19N5S/c1-11(2,3)16-9-13-8(12-7-5-6-7)14-10(15-9)17-4/h7H,5-6H2,1-4H3,(H2,12,13,14,15,16)",CAS_RN: 28159-98-0,91590,HDHLIWCXDDZUFH-UHFFFAOYSA-N,82701,DTXSID3032416,Positive,AU400801|AU400802|AU400803|AU400804|AU400805;SM879801;EA030201|EA030202|EA030203|EA030204|EA030205|EA030206|EA030207|EA030208|EA030209|EA030210|EA030211|EA030212|EA030213|EA030214;UF403401|UF403402|UF403403|UF403404,[M+H]+;[M+H]+;[M+H]+;[M+H]+,CID10|CID20|CID30|CID40|CID50;HCD35;CID35|HCD15|HCD30|HCD45|HCD60|HCD75|HCD90|HCD15|HCD30|HCD45|HCD60|HCD75|HCD90|CID35;HCD55|HCD80|CID35|CID55,254.1437:255.1457:198.0802|198.0807:254.1437:199.826|198.0807:199.0807:156.058|198.0807:156.0581:150.0763|156.0582:150.0759:198.0807;198.0809:254.1435:91.0325;198.0809:74.0056:183.057|254.1435:198.083|254.1432:198.0807|198.0808:254.144:91.0324|198.0808:91.0324:108.0556|198.0804:108.0555:91.0324|108.0556:83.0604:74.0059|254.1433:198.0805|254.1434:198.0808|198.0807:254.1433:91.0324|198.0807:91.0324:83.0603|198.0806:91.0324:108.0556|108.0556:83.0603:68.0243|198.0808;198.0807:91.0324:108.0556|108.0555:83.0603:91.0323|198.0805|198.0806,199.826;199.0807;198.0807;183.057;156.0581;150.0761;108.0556;91.0324;83.0603;74.00575;68.0243,Athens_Univ;CASMI_2016;Eawag;UFZ,NA,NA,NA,NA,NA,NA
stpQQR872,"Caffeine|1,3,7-trimethyl-3,7-dihydro-1H-purine-2,6-dione|1,3,7-trimethylpurine-2,6-dione",c12c(n(c(=O)n(c1=O)C)C)ncn2C,194.0804,C8H10N4O2,"InChI=1S/C8H10N4O2/c1-10-4-9-6-5(10)7(13)12(3)8(14)11(6)2/h4H,1-3H3",CAS_RN: 58-08-2,2519,RYYVLZVUVIJVGH-UHFFFAOYSA-N,2424,DTXSID0020232,Positive,SM866601;EA030301|EA030302|EA030303|EA030304|EA030305|EA030306|EA030307|EA030308|EA030309|EA030310|EA030311|EA030312|EA030313|EA030314;UF408901|UF408902|UF408903|UF408904;UA005001|UA005003,[M+H]+;[M+H]+;[M+H]+;[M+H]+,HCD35;CID35|HCD15|HCD30|HCD45|HCD60|HCD75|HCD90|HCD15|HCD30|HCD45|HCD60|HCD75|HCD90|CID35;HCD55|HCD80|CID35|CID55;CID35|CID35,195.0876:138.0661:110.0712;138.0662:195.0877:110.0713|195.0878:138.0665|195.0879:138.0662|195.0878:138.0662:110.0714|138.0662:195.0877:110.0712|138.0661:110.0712:195.0871|138.066:110.0712:123.0426|195.0876|195.0877:138.0661|195.0877:138.0662:110.0712|138.0662:195.0876:110.0712|138.0662:110.0713:195.0878|138.0661:110.0712:123.0426|138.0661:195.0874:110.0711;138.0663:195.0878:110.0714|138.0663:110.0713:83.0605|138.0664:195.088:110.0714|138.0663:110.0714:177.0165;138.0662:195.0877:110.0713|138.0661:195.0876:151.0978,177.0165;151.0978;138.0662;123.0426;110.07125;83.0605,CASMI_2016;Eawag;UFZ;UFZ_Additional_Specs,NA,NA,NA,NA,NA,NA
stpQQR873,Isoproturon-monodemethyl|1-(4-Isoprophenyl)-3-methylurea,N(C(=O)Nc1ccc(cc1)C(C)C)C,192.1263,C11H16N2O,"InChI=1S/C11H16N2O/c1-8(2)9-4-6-10(7-5-9)13-11(14)12-3/h4-8H,1-3H3,(H2,12,13,14)",CAS_RN: 34123-57-4,182167,DOULWWSSZVEPIN-UHFFFAOYSA-N,158440,DTXSID90891449,Positive/Negative,EA030401|EA030402|EA030403|EA030404|EA030405|EA030406|EA030407|EA030408|EA030409|EA030410|EA030411|EA030412|EA030413|EA030414,[M+H]+,CID35|HCD15|HCD30|HCD45|HCD60|HCD75|HCD90|HCD15|HCD30|HCD45|HCD60|HCD75|HCD90|CID35,151.0867:136.1122:94.0652|193.1337:151.0872:136.1121|193.1336:151.0866:136.1121|151.0867:94.0652:136.1122|94.0652:136.1121:151.0866|94.0652:136.1122:151.0863|94.0652:77.0386:136.1121|193.1337:151.0867:136.1121|193.1337:151.0868:136.1122|151.0867:94.0652:136.1122|94.0652:136.1122:151.0867|94.0652:136.1121:151.0866|94.0652:77.0386:136.1121|151.0867:136.1122:94.0652,151.0867;136.11215;94.0652;77.0386,Eawag,EA030451|EA030452|EA030453|EA030454|EA030455|EA030459|EA030460|EA030464,[M-H]-,CID35|HCD15|HCD30|HCD45|HCD60|HCD30|HCD45|CID35,134.0977|134.0973|134.0975|134.0979|134.0977|134.0977|134.098|134.0977,134.0977,Eawag
stpQQR874,Iodocarb|Iodopropynyl butylcarbamate (IPBC)| 3-iodanylprop-2-ynyl N-butylcarbamate,N(C(OCC#CI)=O)CCCC,280.9913,C8H12INO2,"InChI=1S/C8H12INO2/c1-2-3-6-10-8(11)12-7-4-5-9/h2-3,6-7H2,1H3,(H,10,11)",CAS_RN: 55406-53-6,62097,WYVVKGNFXHOCQV-UHFFFAOYSA-N,55933,DTXSID0028038,Positive,EA030501|EA030502|EA030503|EA030504|EA030505|EA030506|EA030507|EA030508|EA030509|EA030510|EA030511|EA030512|EA030513|EA030514;UF418401|UF418402|UF418403|UF418404,[M+H]+;[M+H]+,CID35|HCD15|HCD30|HCD45|HCD60|HCD75|HCD90|HCD15|HCD30|HCD45|HCD60|HCD75|HCD90|CID35;HCD55|HCD80|CID35|CID55,238.0087:164.9196:155.0941|164.9196:281.9987:57.0699|164.9197:57.0699:155.0944|164.9197:57.0699:55.0179|164.9196:57.0699:55.0178|164.9196:126.904:57.0699|164.9196:126.904:57.0699|164.9196:281.9986:57.0699|164.9196:57.0699:155.0941|164.9196:57.0699:55.0179|164.9196:57.0699:55.0179|164.9197:126.904:57.0699|164.9196:126.904:57.0699|238.0087:164.9195:155.0941;164.9202:126.9037|164.9201:126.9044|238.0096:164.9202:155.0946|164.9202:238.0096:155.0946,238.00915;164.9196;155.09425;126.904;57.0699;55.0179,Eawag;UFZ,NA,NA,NA,NA,NA,NA
stpQQR875,"Terbutryn|2-N-tert-butyl-4-N-ethyl-6-methylsulfanyl-1,3,5-triazine-2,4-diamine",c1(nc(nc(n1)SC)NCC)NC(C)(C)C,241.1356,C10H19N5S1,"InChI=1S/C10H19N5S/c1-6-11-7-12-8(15-10(2,3)4)14-9(13-7)16-5/h6H2,1-5H3,(H2,11,12,13,14,15)",CAS_RN: 886-50-0,13450,IROINLKCQGIITA-UHFFFAOYSA-N,12874,DTXSID3024318,Positive,SM879401;EA030601|EA030602|EA030603|EA030604|EA030605|EA030606|EA030607|EA030608|EA030609|EA030610|EA030611|EA030612|EA030613|EA030614,[M+H]+;[M+H]+,HCD35;CID35|HCD15|HCD30|HCD45|HCD60|HCD75|HCD90|HCD15|HCD30|HCD45|HCD60|HCD75|HCD90|CID35,186.0808:242.1434:91.0324;186.081:171.0572:242.1429|242.1436:186.0827:227.119|242.1437:186.0809|186.081:242.144:91.0324|186.0811:91.0326:138.0776|186.0811:91.0325:68.0243|68.0244:96.0557:91.0325|242.1435:186.0812:227.1205|242.1435:186.0809:227.1197|186.0808:242.1434:91.0325|186.0809:91.0325:158.0495|186.0809:91.0325:68.0243|68.0243:91.0324:96.0556|186.0809:171.0572:242.1431,227.1197;186.0809;171.0572;158.0495;138.0776;96.05565;91.0325;68.0243,CASMI_2016;Eawag,NA,NA,NA,NA,NA,NA
stpQQR876,Mecoprop|2-(4-chloro-2-methyl-phenoxy)propionic acid,CC1=C(C=CC(=C1)Cl)OC(C)C(=O)O,214.0397,C10H11ClO3,"InChI=1S/C10H11ClO3/c1-6-5-8(11)3-4-9(6)14-7(2)10(12)13/h3-5,7H,1-2H3,(H,12,13)",CAS_RN: 93-65-2,7153,WNTGYJSOUMFZEP-UHFFFAOYSA-N,6886,DTXSID9024194,Negative,NA,NA,NA,NA,NA,NA,SM842051;EA030851|EA030852|EA030853|EA030854|EA030855|EA030856|EA030857|EA030858|EA030859|EA030860|EA030861|EA030862|EA030863|EA030864,[M-H]-;[M-H]-,HCD35;CID35|HCD15|HCD30|HCD45|HCD60|HCD75|HCD90|HCD15|HCD30|HCD45|HCD60|HCD75|HCD90|CID35,141.0112:213.0324:169.0425;141.0115:71.0139:169.0429|141.0113:213.0325:71.0138|141.0114:213.0319:71.0138|141.0113:71.0137|141.0114:71.0139|141.0111:121.0293:105.0347|141.0111:121.0297:105.0346|141.0113:213.0324:71.0138|141.0113:71.0138:213.0325|141.0112:71.0137|141.0112:71.0136:121.0293|141.0113:121.0293:105.0345|141.0111:121.0298:105.0344|141.0114:71.0138:169.0423,213.0324;169.0425;141.0113;121.0293;105.03455;71.0138,CASMI_2016;Eawag
stpQQR877,Atrazine-desethyl|Deethylatrazine|(4-amino-6-chloro-s-triazin-2-yl)-isopropyl-amine,c1(nc(nc(n1)Cl)N)NC(C)C,187.0625,C6H10ClN5,"InChI=1S/C6H10ClN5/c1-3(2)9-6-11-4(7)10-5(8)12-6/h3H,1-2H3,(H3,8,9,10,11,12)",CAS_RN: 6190-65-4,22563,DFWFIQKMSFGDCQ-UHFFFAOYSA-N,21157,DTXSID5037494,Positive,AU301601|AU301602|AU301603|AU301604;SM840801;EA030901|EA030902|EA030903|EA030904|EA030905|EA030906|EA030907|EA030908|EA030909|EA030910|EA030911|EA030912|EA030913|EA030914;UF402501|UF402502|UF402503|UF402504,[M+H]+;[M+H]+;[M+H]+;[M+H]+,CID10|CID20|CID30|CID40;HCD35;CID35|HCD15|HCD30|HCD45|HCD60|HCD75|HCD90|HCD15|HCD30|HCD45|HCD60|HCD75|HCD90|CID35;HCD55|HCD80|CID35|CID55,188.0691:190.0659:146.0219|146.0219:188.0691:148.0187|146.0219:148.0187:147.0237|146.0219:148.0187:147.0237;188.0697:146.0227:104.001;146.0228:188.07:104.001|188.0698|188.0699:146.0226:104.0011|188.0698:146.0228:104.0009|146.0228:188.0695:104.001|146.0228:104.001:79.0058|104.001:146.0227:79.0058|188.0696:146.0232|188.0696:146.0228:104.0009|188.0696:146.0228:104.0009|146.0228:188.0697:104.0009|146.0227:104.0009:79.0057|104.001:146.0227:79.0058|146.0228:188.0696:110.0461;146.0228:188.0699:104.001|146.0227:104.0009:79.0057|146.0227:188.0697:110.0461|146.0227:110.0461:104.001,148.0187;147.0237;146.0227;110.0461;104.001;79.0058,Athens_Univ;CASMI_2016;Eawag;UFZ,NA,NA,NA,NA,NA,NA
stpQQR878,"3-Phenoxybenzylalcohol|Benzenemethanol, 3-phenoxy-|(3-phenoxyphenyl)methanol",c1(Oc2ccccc2)cc(ccc1)CO,200.0837,C13H12O2,"InChI=1S/C13H12O2/c14-10-11-5-4-8-13(9-11)15-12-6-2-1-3-7-12/h1-9,14H,10H2",CAS_RN: 13826-35-2,26295,KGANAERDZBAECK-UHFFFAOYSA-N,24499,DTXSID7027756,Positive,EA032501|EA032502|EA032503|EA032504|EA032506|EA032508|EA032509|EA032510|EA032511|EA032514,[M+H]+,CID35|HCD15|HCD30|HCD45|HCD75|HCD15|HCD30|HCD45|HCD60|CID35,183.0801:171.0802|183.0805:171.0804|183.0798:171.0804|183.0803:153.0694:171.0811|65.0387|183.0803:171.0803|171.0803:183.0803|183.0802:171.0802|153.0696:65.0386:183.0803|183.0801:171.08,183.0803;171.0803;153.0695;65.03865,Eawag,NA,NA,NA,NA,NA,NA
stpQQR879,3-Phenoxybenzoic acid,c1(cc(ccc1)C(O)=O)Oc1ccccc1,214.063,C13H10O3,"InChI=1S/C13H10O3/c14-13(15)10-5-4-8-12(9-10)16-11-6-2-1-3-7-11/h1-9H,(H,14,15)",CAS_RN: 3739-38-6,19539,NXTDJHZGHOFSQG-UHFFFAOYSA-N,18409,DTXSID1038321,Positive/Negative,EA032601|EA032609|EA032614,[M+H]+,CID35|HCD30|CID35,171.0802|171.0799|171.0803,171.0802,Eawag,AU200551;EA032651|EA032652|EA032653|EA032654|EA032655|EA032656|EA032657|EA032658|EA032659|EA032660|EA032661|EA032662|EA032663|EA032664,[M-H]-;[M-H]-,CID10;CID35|HCD15|HCD30|HCD45|HCD60|HCD75|HCD90|HCD15|HCD30|HCD45|HCD60|HCD75|HCD90|CID35,213.0543:169.0644:214.0576;169.0661:93.0345:167.0502|213.0557:169.066:93.0343|169.0659:93.0345:213.0557|93.0345:169.0658:213.056|93.0346|93.0345|93.0345|213.0556:169.0658:93.0342|169.0657:93.0344:213.0553|93.0345:169.0658:213.0554|93.0345|93.0345|93.0345|169.066:93.0344:167.0495,213.0556;169.0658;167.04985;93.0345,Athens_Univ;Eawag
stpQQR880,"Tebuconazole|1-(4-chlorophenyl)-4,4-dimethyl-3-(1,2,4-triazol-1-ylmethyl)-3-pentanol",CC(C)(C)C(CCC1=CC=C(C=C1)Cl)(CN2C=NC=N2)O,307.1446,C16H22ClN3O,"InChI=1S/C16H22ClN3O/c1-15(2,3)16(21,10-20-12-18-11-19-20)9-8-13-4-6-14(17)7-5-13/h4-7,11-12,21H,8-10H2,1-3H3",CAS_RN: 107534-96-3,86102,PXMNMQRDXWABCY-UHFFFAOYSA-N,77680,DTXSID9032113,Positive,SM842302;EA032701|EA032702|EA032703|EA032704|EA032705|EA032706|EA032707|EA032708|EA032709|EA032710|EA032711|EA032712|EA032713|EA032714;ET250001;UF404301|UF404302|UF404303|UF404304,[M+H]+;[M+H]+;[M+H]+;[M+H]+,HCD35;CID35|HCD15|HCD30|HCD45|HCD60|HCD75|HCD90|HCD15|HCD30|HCD45|HCD60|HCD75|HCD90|CID35;HCD35;HCD55|HCD80|CID35|CID55,70.04:308.1523:125.0152;290.1418:151.0309:165.046|308.1526|308.1523:70.04:125.0153|70.04:125.0153:308.1528|70.04:125.0153:151.0311|70.04:125.0152:151.0309|70.04:125.0152:116.062|308.1525:70.0398:125.0147|308.1526:70.04:125.0151|70.04:125.0153:151.031|70.04:125.0153:151.0309|70.04:125.0153:116.0621|70.04:125.0153:116.0621|290.1414:151.0309:165.0464;70.04:308.1524:125.0153;70.0398:125.0151:151.0308|70.0398:125.0151:116.0619|151.0308:290.1416:165.0465|151.0307:290.1417:165.0465,290.14165;165.04645;151.0309;125.0153;116.06205;70.04,CASMI_2016;Eawag;Eawag_Additional_Specs;UFZ,NA,NA,NA,NA,NA,NA
stpQQR881,"Fluconazole|2-(2,4-difluorophenyl)-1,3-bis(1,2,4-triazol-1-yl)-2-propanol",OC(CN1C=NC=N1)(CN2C=NC=N2)C3=C(F)C=C(F)C=C3,306.1041,C13H12F2N6O,"InChI=1S/C13H12F2N6O/c14-10-1-2-11(12(15)3-10)13(22,4-20-8-16-6-18-20)5-21-9-17-7-19-21/h1-3,6-9,22H,4-5H2",CAS_RN: 86386-73-4,3365,RFHAOTPXVQNOHP-UHFFFAOYSA-N,3248,DTXSID3020627,Positive/Negative,SM859801;EA032801|EA032802|EA032803|EA032804|EA032805|EA032806|EA032807|EA032808|EA032809|EA032810|EA032811|EA032812|EA032813|EA032814;ET230001,[M+H]+;[M+H]+;[M+H]+,HCD35;CID35|HCD15|HCD30|HCD45|HCD60|HCD75|HCD90|HCD15|HCD30|HCD45|HCD60|HCD75|HCD90|CID35;HCD35,307.1114:220.0681:238.0786;238.079:220.0684:289.101|307.1118:238.0779:220.0682|238.0788:220.0683:307.1115|220.0683:169.0461:238.0787|169.0461:220.0683:139.0355|139.0355:127.0354:121.0449|127.0355:139.0355:151.0355|307.1116:238.0785:220.068|238.0788:220.0682:307.1112|220.0681:169.046:238.0786|169.0461:220.0682:139.0354|139.0354:127.0354:121.0449|139.0354:127.0354:151.0354|238.0789:220.0683:289.1009;220.0679:238.0784:169.0458,289.10095;238.07865;220.0682;169.0461;151.03545;139.03545;127.0354;121.0449,CASMI_2016;Eawag;Eawag_Additional_Specs,SM859851;EA032851|EA032852|EA032853|EA032854|EA032855|EA032856|EA032857|EA032858|EA032859|EA032860|EA032861|EA032862|EA032863|EA032864,[M-H]-;[M-H]-,HCD35;CID35|HCD15|HCD30|HCD45|HCD60|HCD75|HCD90|HCD15|HCD30|HCD45|HCD60|HCD75|HCD90|CID35,191.0687:108.0192:122.0354;191.069:222.0485:108.0204|191.0689:305.0971:68.0255|191.0688:68.0254:122.0361|191.069:68.0255:122.0362|68.0255:191.0687:108.0204|68.0255:108.0204:94.0411|68.0255:93.0145:94.0413|191.069:305.0968:68.0255|191.069:68.0255:122.0361|191.0688:68.0255:122.036|68.0255:191.0686:108.0202|68.0255:94.041:93.0144|68.0255:93.0146:305.0961|191.0689:222.0488,305.0968;222.04865;191.0689;122.0361;108.0204;94.0411;93.0145;68.0255,CASMI_2016;Eawag