NORMAN_ID,NAME,SMILES,NEUTRAL_EXACT_MASS,FORMULA,StdInChI,CAS_RN,PUBCHEM_CID,InChIKey,CHEMSPIDER_ID,DTXSID,Preferable Ionization,MB_Records Positive Ionization,Adduct Positive Ionization,Ionisation type and collision energy Positive Ionization,Fragments Positive Ionization,Simplified_fragments_Positive,Institute Positive Ionization,MB_Records Negative Ionization,Adduct Negative Ionization,Ionisation type and collision energy Negative Ionization,Fragments Negative Ionization,Simplified_fragments_Negative,Institute Negative Ionization
stpQQR248,"Fenuron|1,1-dimethyl-3-phenylurea",CN(C)C(=O)Nc1ccccc1,164.09496,C9H12N2O,"InChI=1S/C9H12N2O/c1-11(2)9(12)10-8-6-4-3-5-7-8/h3-7H,1-2H3,(H,10,12)",CAS_RN: 101-21-3,7560,XXOYNJXVWVNOOJ-UHFFFAOYSA-N,7279,DTXSID7037551,Positive,SM842501;EQ311101|EQ311102|EQ311103|EQ311104|EQ311105|EQ311106;UF404501|UF404502|UF404503|UF404504,[M+H]+;[M+H]+;[M+H]+,HCD35;HCD15|HCD30|HCD45|HCD60|HCD75|HCD90;HCD55|HCD80|CID35|CID55,72.0444:165.1023:120.0444;72.0442:165.102:120.0442|72.0443:165.102:120.0442|72.0443:165.102:120.0442|72.0443:120.0442:165.1021|72.0443:92.0493:120.0442|72.0443:92.0493:95.049;72.0442:165.1022:120.0443|72.0442:92.0494:120.0443|165.1019:72.0442:120.0442|72.0442:120.0442:165.1017,120.0442;95.049;92.0493;72.0443,CASMI_2016;Eawag;UFZ,NA,NA,NA,NA,NA,NA
stpQQR249,"Chloroxuron|3-[4-(4-chlorophenoxy)phenyl]-1,1-dimethylurea|3-[4-(4-chlorophenoxy)phenyl]-1,1-dimethylurea",CN(C)C(=O)Nc1ccc(Oc2ccc(Cl)cc2)cc1,290.08221,C15H15ClN2O2,"InChI=1S/C15H15ClN2O2/c1-18(2)15(19)17-12-5-9-14(10-6-12)20-13-7-3-11(16)4-8-13/h3-10H,1-2H3,(H,17,19)",CAS_RN: 1982-47-4,16115,IVUXTESCPZUGJC-UHFFFAOYSA-N,15299,DTXSID7040287,Positive,SM842603;UF404601|UF404602|UF404603|UF404604,[M+H]+;[M+H]+,HCD35;HCD55|HCD80|CID35|CID55,72.0444:291.0896:218.0368;72.0442:118.065:163.0308|72.0442:163.0308:118.0651|291.0893:164.0943:246.0317|164.0943:246.0317:147.0677,246.0317;218.0368;164.0943;163.0308;147.0677;118.06505;72.0442,CASMI_2016;UFZ,NA,NA,NA,NA,NA,NA
stpQQR250,"Lenacil|3-cyclohexyl-1,5,6,7-tetrahydrocyclopenta[d]pyrimidine-2,4-dione|3-cyclohexyl-1,5,6,7-tetrahydrocyclopenta[d]pyrimidine-2,4-dione",O=C1NC2=C(CCC2)C(=O)N1C1CCCCC1,234.13683,C13H18N2O2,"InChI=1S/C13H18N2O2/c16-12-10-7-4-8-11(10)14-13(17)15(12)9-5-2-1-3-6-9/h9H,1-8H2,(H,14,17)",CAS_RN: 2164-08-1,16559,ZTMKADLOSYKWCA-UHFFFAOYSA-N,15699,DTXSID9042093,Positive,SM842702;EA294901|EA294902|EA294903|EA294904|EA294905|EA294906|EA294907|EA294908|EA294909|EA294910|EA294911|EA294912|EA294913|EA294914;UF404701|UF404702|UF404703|UF404704,[M+H]+;[M+H]+;[M+H]+,HCD35;CID35|HCD15|HCD30|HCD45|HCD60|HCD75|HCD90|HCD15|HCD30|HCD45|HCD60|HCD75|HCD90|CID35;HCD55|HCD80|CID35|CID55,153.0658:235.1441:136.0393;153.0658|235.144:153.0659|153.0657:235.1443:83.0854|153.0657:83.0855:136.0396|153.0657:136.0393:135.0552|153.0657:136.0393:135.0553|153.0657:136.0393:135.0553|235.144:153.0658:135.0556|153.0659:235.1443:83.0856|153.0658:83.0856:235.1442|153.0658:136.0393:135.0553|153.0658:136.0393:135.0553|153.0657:136.0392:135.0553|153.0658;153.0658:72.0443:133.0075|72.0443:153.0658:136.0392|153.0657:72.0442:133.0074|153.0658:72.0442:133.0075,153.0658;136.0393;135.0553;133.0075;83.08555;72.04425,CASMI_2016;Eawag;UFZ,NA,NA,NA,NA,NA,NA
stpQQR251,"Ametryn|4-N-ethyl-6-methylsulfanyl-2-N-propan-2-yl-1,3,5-triazine-2,4-diamine|4-N-ethyl-6-methylsulfanyl-2-N-propan-2-yl-1,3,5-triazine-2,4-diamine",CCNc1nc(NC(C)C)nc(SC)n1,227.12047,C9H17N5S,"InChI=1S/C9H17N5S/c1-5-10-7-12-8(11-6(2)3)14-9(13-7)15-4/h6H,5H2,1-4H3,(H2,10,11,12,13,14)",CAS_RN: 834-12-8,13263,RQVYBGPQFYCBGX-UHFFFAOYSA-N,12705,DTXSID1023869,Positive,SM842801;EQ303401|EQ303402|EQ303403|EQ303404|EQ303405|EQ303406;UF404801|UF404802|UF404803|UF404804,[M+H]+;[M+H]+;[M+H]+,HCD35;HCD15|HCD30|HCD45|HCD60|HCD75|HCD90;HCD55|HCD80|CID35|CID55,228.1278:186.0808:96.0556;228.1279:186.0809:96.0555|228.1279:186.0808:96.0556|186.0808:228.1278:96.0556|186.0809:96.0556:91.0324|96.0557:186.0809:68.0243|68.0243:96.0557:71.0604;186.0807:228.1278:96.0556|96.0555:116.0276:186.0806|186.0807:228.1277:96.0556|186.0806:138.1026:96.0556,186.0808;138.1026;116.0276;96.0556;91.0324;71.0604;68.0243,CASMI_2016;Eawag;UFZ,NA,NA,NA,NA,NA,NA
stpQQR252,"2,6-Dichlorobenzamide",NC(=O)c1c(Cl)cccc1Cl,188.97482,C7H5Cl2NO,"InChI=1S/C7H5Cl2NO/c8-4-2-1-3-5(9)6(4)7(10)11/h1-3H,(H2,10,11)",CAS_RN: 2008-58-4,16183,JHSPCUHPSIUQRB-UHFFFAOYSA-N,15359,DTXSID7022170,Positive,AU337401|AU337402|AU337403|AU337404|AU337405;SM842901;EA008501|EA008502|EA008503|EA008504|EA008505|EA008506|EA008507|EA008508|EA008509|EA008510|EA008511|EA008512|EA008513|EA008514;UF405101|UF405102|UF405103|UF405104,[M+H]+;[M+H]+;[M+H]+;[M+H]+,CID10|CID20|CID30|CID40|CID50;HCD35;CID35|HCD15|HCD30|HCD45|HCD60|HCD75|HCD90|HCD15|HCD30|HCD45|HCD60|HCD75|HCD90|CID35;HCD55|HCD80|CID35|CID55,189.9814:191.9783:172.9541|172.9541:174.9516:189.9814|172.9541:174.9516:173.9575|172.9541:174.9516:144.9599|172.9657:174.9623:144.9597;189.982:172.9555:171.9714;172.9555:146.9762:171.9716|189.982:172.9551|189.9821:172.9554:171.9713|172.9555:189.9821:171.9715|172.9556:189.9819:171.9715|172.9559:171.9714:164.0007|108.9838:164.0009:144.9604|189.9819:172.9548|189.982:172.9555:146.9761|172.9555:189.982:171.9714|172.9555:189.9819:172.9659|172.9555:172.9666:171.9715|172.9666:172.9555:108.9839|172.9555:146.9762:171.9714;172.9554:189.9819:171.9715|172.9554:171.9714:139.0058|172.9554:146.9762:171.9718|172.9554:146.9763:171.9715,174.9623;174.9516;173.9575;172.9555;171.9715;164.0008;146.9762;144.9599;139.0058;108.98385,Athens_Univ;CASMI_2016;Eawag;UFZ,NA,NA,NA,NA,NA,NA
stpQQR253,"3,4-Dichlorophenylurea|1-(3,4-Dichlorophenyl)urea|(3,4-dichlorophenyl)urea",NC(=O)Nc1ccc(Cl)c(Cl)c1,203.98572,C7H6Cl2N2O,"InChI=1S/C7H6Cl2N2O/c8-5-2-1-4(3-6(5)9)11-7(10)12/h1-3H,(H3,10,11,12)",CAS_RN: 2327-02-8,16854,CYESCLHCWJKRKM-UHFFFAOYSA-N,15972,DTXSID2041468,Positive/Negative,AU400301|AU400302|AU400303|AU400304|AU400305;SM843003;EA028901|EA028902|EA028903|EA028904|EA028905|EA028906|EA028907|EA028908|EA028909|EA028910|EA028911|EA028912|EA028913|EA028914;UF405201|UF405202|UF405203|UF405204,[M+H]+;[M+H]+;[M+H]+;[M+H]+,CID10|CID20|CID30|CID40|CID50;HCD35;CID35|HCD15|HCD30|HCD45|HCD60|HCD75|HCD90|HCD15|HCD30|HCD45|HCD60|HCD75|HCD90|CID35;HCD55|HCD80|CID35|CID55,204.9926:206.9893:161.986|127.0173:161.9857:163.9828|127.0173:129.0139:159.9702|127.0173:129.0139:132.96|127.0175:129.0146:132.9599;204.993:161.9871:127.0183;161.9872:187.9664:127.0183|204.9929:160.9788:187.9672|204.9932:161.9873:127.0185|161.9872:127.0184:204.9933|127.0184:161.9873:159.9716|127.0185:159.9717:161.9872|127.0184:159.9716:132.9607|204.993:161.9873:187.9659|204.9931:161.9873:187.9666|161.9873:127.0184:204.9931|127.0185:161.9873:159.9716|127.0184:159.9716:161.9873|127.0185:159.9717:132.9608|161.9873:187.9666:127.0185;127.0182:161.9872:159.9715|127.0182:159.9715:161.9872|161.9872:187.9665:127.0183|161.9871:187.9665:127.0182,187.9665;163.9828;161.9872;160.9788;159.9716;132.96035;129.0139;127.01835,Athens_Univ;CASMI_2016;Eawag;UFZ,AU400351|AU400352;SM843053;EA028951|EA028952|EA028953|EA028954|EA028955|EA028956|EA028958|EA028959|EA028960|EA028961|EA028962;UF405251|UF405252|UF405253|UF405254,[M-H]-;[M-H]-;[M-H]-;[M-H]-,CID10|CID20;HCD35;CID35|HCD15|HCD30|HCD45|HCD60|HCD75|HCD15|HCD30|HCD45|HCD60|HCD75;HCD55|HCD80|CID35|CID55,159.9713:161.9679:202.977|159.9709:161.9682:160.9742;159.9726;159.9728|202.9794:159.9733|159.973|159.973|159.9731|159.9724:202.9791|202.9783:159.9728|159.9729|159.9728|159.9728|159.973;159.9727|159.9725|159.9726|159.9726,202.9787;161.96805;160.9742;159.9728,Athens_Univ;CASMI_2016;Eawag;UFZ
stpQQR254,"Quinoxyfen|5,7-dichloro-4-(4-fluorophenoxy)quinoline",Fc1ccc(Oc2ccnc3cc(Cl)cc(Cl)c23)cc1,306.9967,C15H8Cl2FNO,InChI=1S/C15H8Cl2FNO/c16-9-7-12(17)15-13(8-9)19-6-5-14(15)20-11-3-1-10(18)2-4-11/h1-8H,CAS_RN: 124495-18-7,3391107,WRPIRSINYZBGPK-UHFFFAOYSA-N,2635909,DTXSID2034881,Positive,SM843104;UF405501|UF405502|UF405503|UF405504,[M+H]+;[M+H]+,HCD35;HCD55|HCD80|CID35|CID55,308.0039:196.9793:272.0272;308.0042:196.9795:272.0274|196.9794:213.9821:162.0106|308.0042:272.0274:196.9794|272.0274:196.9794:245.0404,272.0274;245.0404;213.9821;196.9794;162.0106,CASMI_2016;UFZ,NA,NA,NA,NA,NA,NA
stpQQR255,"Clomazone|2-[(2-chlorophenyl)methyl]-4,4-dimethyl-1,2-oxazolidin-3-one",CC1(C)CON(Cc2ccccc2Cl)C1=O,239.07131,C12H14ClNO2,"InChI=1S/C12H14ClNO2/c1-12(2)8-16-14(11(12)15)7-9-5-3-4-6-10(9)13/h3-6H,7-8H2,1-2H3",CAS_RN: 89493-06-1,54778,KIEDNEWSYUYDSN-UHFFFAOYSA-N,49469,DTXSID1032355,Positive,SM843201;EA013901|EA013902|EA013903|EA013904|EA013905|EA013906|EA013907|EA013908|EA013909|EA013910|EA013911|EA013912|EA013913|EA013914;UF405601|UF405602|UF405603|UF405604,[M+H]+;[M+H]+;[M+H]+,HCD35;CID35|HCD15|HCD30|HCD45|HCD60|HCD75|HCD90|HCD15|HCD30|HCD45|HCD60|HCD75|HCD90|CID35;HCD55|HCD80|CID35|CID55,125.0153:240.0786:128.0706;125.0153:128.0706:100.0757|240.0787:125.0149:128.0704|125.0152:240.0787:128.0707|125.0153:240.0797:89.0386|125.0153:89.0386|125.0153:89.0385:98.9996|125.0153:89.0386:98.9996|240.0787:125.0151:128.0706|125.0153:240.0787:128.0705|125.0153:240.0786:73.0648|125.0153:89.0387:98.9997|125.0153:89.0386:98.9996|125.0153:89.0386:98.9996|125.0153:128.0706:100.0757;125.0151:240.0783:89.0384|125.0151:89.0385:98.9995|125.0151:128.0704:240.0785|125.0151:128.0704:100.0756,128.0706;125.0153;100.0757;98.9996;89.0386;73.0648,CASMI_2016;Eawag;UFZ,NA,NA,NA,NA,NA,NA
stpQQR256,"Methiocarb|(3,5-dimethyl-4-methylsulfanylphenyl) N-methylcarbamate",CNC(=O)Oc1cc(C)c(SC)c(C)c1,225.08235,C11H15NO2S,"InChI=1S/C11H15NO2S/c1-7-5-9(14-11(13)12-3)6-8(2)10(7)15-4/h5-6H,1-4H3,(H,12,13)",CAS_RN: 716-16-5,16248,YFBPRJGDJKVWAH-UHFFFAOYSA-N,15417,DTXSID3032626,Positive,SM843301;EA293701|EA293702|EA293703|EA293704|EA293705|EA293706|EA293707|EA293708|EA293709|EA293710|EA293711|EA293712|EA293713|EA293714;UF405701|UF405702|UF405703|UF405704,[M+H]+;[M+H]+;[M+H]+,HCD35;CID35|HCD15|HCD30|HCD45|HCD60|HCD75|HCD90|HCD15|HCD30|HCD45|HCD60|HCD75|HCD90|CID35;HCD55|HCD80|CID35|CID55,121.0648:169.0681:122.0726;169.0683:121.0649:122.0727|169.0682:121.065:226.0898|169.0681:121.0649:122.0725|121.0648:169.0684:122.0727|121.0649:122.0727:93.07|121.0649:122.0727:93.07|121.0649:107.0492:122.0726|169.0682:121.0649:226.0897|169.0681:121.0647:122.0726|121.0649:169.0683:122.0727|121.0649:122.0726:93.07|121.0648:122.0726:93.07|121.0649:107.0492:122.0727|169.0684:121.065:122.0723;121.0646:122.0725:91.0542|121.0647:122.0725:91.0542|169.068:121.0647:148.0755|169.0681:121.0648:148.0757,169.0682;148.0756;122.0726;121.0649;107.0492;93.07;91.0542,CASMI_2016;Eawag;UFZ,NA,NA,NA,NA,NA,NA
stpQQR257,"Pendimethalin|3,4-dimethyl-2,6-dinitro-N-pentan-3-ylaniline",CCC(CC)Nc1c(cc(C)c(C)c1[N+]([O-])=O)[N+]([O-])=O,281.13756,C13H19N3O4,"InChI=1S/C13H19N3O4/c1-5-10(6-2)14-12-11(15(17)18)7-8(3)9(4)13(12)16(19)20/h7,10,14H,5-6H2,1-4H3",CAS_RN: 64719-41-1,38479,CHIFOSRWCNZCFN-UHFFFAOYSA-N,35265,DTXSID7024245,Positive,SM843503;EQ311601|EQ311602|EQ311603|EQ311604|EQ311605|EQ311606;UF405901|UF405902|UF405903|UF405904,[M+H]+;[M+H]+;[M+H]+,HCD35;HCD15|HCD30|HCD45|HCD60|HCD75|HCD90;HCD55|HCD80|CID35|CID55,214.0715:176.1435:212.0667;212.0666:71.0855:194.0561|212.0666:194.0561:71.0855|194.0561:212.0667:118.0525|91.0417:148.0632:119.0604|119.0604:91.0417:92.0495|92.0495:119.0604:65.0386;194.0561:148.0631:118.0526|119.0603:148.0631:92.0494|212.0665:194.056:266.02|212.0666:194.0562:266.0193,266.01965;214.0715;212.0666;194.0561;176.1435;148.0631;119.0604;118.05255;92.0495;91.0417;71.0855;65.0386,CASMI_2016;Eawag;UFZ,NA,NA,NA,NA,NA,NA
stpQQR258,Boscalid|2-chloro-N-[2-(4-chlorophenyl)phenyl]pyridine-3-carboxamide,Clc1ccc(cc1)-c1ccccc1NC(=O)c1cccnc1Cl,342.03267,C18H12Cl2N2O,"InChI=1S/C18H12Cl2N2O/c19-13-9-7-12(8-10-13)14-4-1-2-6-16(14)22-18(23)15-5-3-11-21-17(15)20/h1-11H,(H,22,23)",CAS_RN: 54494-12-1,213013,WYEMLYFITZORAB-UHFFFAOYSA-N,184713,DTXSID6034392,Positive/Negative,SM843603;EA293801|EA293802|EA293803|EA293804|EA293805|EA293806|EA293807|EA293808|EA293809|EA293810|EA293811|EA293812|EA293813|EA293814;UF406001|UF406002|UF406003|UF406004,[M+H]+;[M+H]+;[M+H]+,HCD35;CID35|HCD15|HCD30|HCD45|HCD60|HCD75|HCD90|HCD15|HCD30|HCD45|HCD60|HCD75|HCD90|CID35;HCD55|HCD80|CID35|CID55,307.0633:343.0401:139.9897;307.0631:139.9899:111.995|343.0399:307.0638:139.9896|307.0636:343.04:139.9898|307.0634:271.0867:272.0945|272.0946:271.0869:307.0634|271.0867:272.0944:243.0919|271.0867:243.0919:78.0339|343.0398:307.0633:139.9898|307.0631:343.0402:139.9899|307.0631:271.0868:272.0946|272.0947:271.0869:307.0634|271.0869:272.0946:243.0919|271.0867:243.0918:111.9949|307.0633:139.9899:111.995;307.0634:272.0945:271.0867|271.0866:272.0945:243.0918|307.0632:139.9898:111.9948|307.0632:139.9898:111.9948,307.0633;272.09455;271.0867;243.0919;139.9898;111.9949;78.0339,CASMI_2016;Eawag;UFZ,EA293852|EA293858;UF406051|UF406053|UF406054,[M-H]-;[M-H]-,HCD15|HCD15;HCD55|CID35|CID55,341.0249|341.0244:204.0201;197.9525|197.9515:228.0213:111.9958|228.0222:111.9961,341.02465;228.02175;204.0201;197.952;111.99595,Eawag;UFZ
stpQQR259,"Prothioconazole-desthio|2-(1-chlorocyclopropyl)-1-(2-chlorophenyl)-3-(1,2,4-triazol-1-yl)propan-2-ol",OC(Cc1ccccc1Cl)(Cn1cncn1)C1(Cl)CC1,311.05922,C14H15Cl2N3O,"InChI=1S/C14H15Cl2N3O/c15-12-4-2-1-3-11(12)7-14(20,13(16)5-6-13)8-19-10-17-9-18-19/h1-4,9-10,20H,5-8H2",CAS_RN: 120983-64-4,119361,HHUQPWODPBDTLI-UHFFFAOYSA-N,106612,DTXSID3044338,Positive/Negative,SM843701;EQ317601|EQ317602|EQ317603|EQ317604|EQ317605|EQ317606;UF406101|UF406102|UF406103|UF406104,[M+H]+;[M+H]+;[M+H]+,HCD35;HCD15|HCD30|HCD45|HCD60|HCD75|HCD90;HCD55|HCD80|CID35|CID55,312.0666:70.0401:125.0153;312.0665:70.0399:189.0465|312.0666:70.04:125.0152|70.04:125.0153:312.0666|70.04:125.0153:154.0777|70.04:125.0153:89.0386|70.04:125.0153:89.0386;70.0398:125.0151:139.0308|125.0151:70.0398:153.0699|125.0151:189.0464:154.0776|125.0152:189.0465:225.0234,225.0234;189.0465;154.07765;153.0699;139.0308;125.01525;89.0386;70.04,CASMI_2016;Eawag;UFZ,EQ317651|EQ317652|EQ317653|EQ317654|EQ317655|EQ317656,[M-H]-,HCD15|HCD30|HCD45|HCD60|HCD75|HCD90,184.0283:125.0165:131.0135|125.0163:184.0282:152.0842|68.0254:125.0162:151.0763|68.0254:151.0765:151.0399|68.0254:151.04:95.0138|68.0254:95.0138:151.0399,184.02825;152.0842;151.0764;151.0399;131.0135;125.0163;95.0138;68.0254,Eawag
stpQQR260,Flurtamone|5-(methylamino)-2-phenyl-4-[3-(trifluoromethyl)phenyl]furan-3-one,CNC1=C(C(=O)C(O1)c1ccccc1)c1cccc(c1)C(F)(F)F,333.09766,C18H14F3NO2,"InChI=1S/C18H14F3NO2/c1-22-17-14(12-8-5-9-13(10-12)18(19,20)21)15(23)16(24-17)11-6-3-2-4-7-11/h2-10,16,22H,1H3",CAS_RN: 96525-23-4,91755,NYRMIJKDBAQCHC-UHFFFAOYSA-N,82853,DTXSID5058228,Positive/Negative,SM843802;EQ360001|EQ360002|EQ360003|EQ360004|EQ360005|EQ360006|EQ360007|EQ360008|EQ360009;UF406401|UF406402|UF406403|UF406404,[M+H]+;[M+H]+;[M+H]+,HCD35;HCD15|HCD30|HCD45|HCD60|HCD75|HCD90|HCD120|HCD150|HCD180;HCD55|HCD80|CID35|CID55,334.1049:247.0729:105.0335;334.1047:277.0839:303.0625|334.1048:303.0629:306.1101|247.073:105.0335:275.0679|247.0729:178.0777:105.0335|178.0778:227.0668:105.0336|178.0778:227.0668:207.0607|178.0777:152.0621:176.0622|176.0622:152.0622:169.0649|176.0622:150.0465:169.0649;247.073:105.0335:227.0668|178.0776:227.0666:247.0728|334.1052:303.0632:306.1102|303.0631:306.1101:275.068,306.1101;303.063;277.0839;275.06795;247.0729;227.0668;207.0607;178.0777;176.0622;169.0649;152.06215;150.0465;105.0335,CASMI_2016;Eawag;UFZ,SM843853;EQ360051|EQ360052|EQ360053|EQ360054|EQ360055|EQ360056|EQ360057|EQ360058|EQ360059;UF406451|UF406452|UF406453|UF406454,[M-H]-;[M-H]-;[M-H]-,HCD35;HCD15|HCD30|HCD45|HCD60|HCD75|HCD90|HCD120|HCD150|HCD180;HCD55|HCD80|CID35|CID55,332.0904:247.074:185.0219;332.0903|332.0903:247.0739:304.0955|332.0906:247.074:198.0536|185.022:183.0301:145.0271|185.022:183.0301:145.0271|185.0219:183.0301:156.0193|97.0083:185.0219:145.0095|97.0083:122.0036:50.0036|97.0083:122.0036:50.0035;332.0903|332.0904:247.0747:304.0961|247.0741:275.0688:304.0955|247.074:275.0689:304.0955,332.09035;304.0955;275.06885;247.074;198.0536;185.0219;183.0301;156.0193;145.0271;145.0095;122.0036;97.0083;50.00355,CASMI_2016;Eawag;UFZ
stpQQR261,Picolinafen|N-(4-fluorophenyl)-6-[3-(trifluoromethyl)phenoxy]pyridine-2-carboxamide,FC1=CC=C(NC(=O)C2=NC(OC3=CC=CC(=C3)C(F)(F)F)=CC=C2)C=C1,376.08349,C19H12F4N2O2,"InChI=1S/C19H12F4N2O2/c20-13-7-9-14(10-8-13)24-18(26)16-5-2-6-17(25-16)27-15-4-1-3-12(11-15)19(21,22)23/h1-11H,(H,24,26)",CAS_RN: 137641-05-5,3294375,CWKFPEBMTGKLKX-UHFFFAOYSA-N,2542991,DTXSID8044339,Positive,SM843903;EQ360301|EQ360302|EQ360303|EQ360304|EQ360305|EQ360306|EQ360307|EQ360308|EQ360309;UF406501|UF406502|UF406503|UF406504,[M+H]+;[M+H]+;[M+H]+,HCD35;HCD15|HCD30|HCD45|HCD60|HCD75|HCD90|HCD120|HCD150|HCD180;HCD55|HCD80|CID35|CID55,256.058:377.0909:238.0474;377.0904:359.0799:284.0528|256.0577:359.0799:284.0527|256.0577:238.0473:359.0799|238.0473:256.0579:145.0259|145.0259:238.0473:190.0462|145.0259:123.0353:190.0462|145.0259:123.0352:75.0228|75.0228:123.0352:74.0151|75.0228:74.015:75.004;238.0475:256.0582:359.0803|145.0259:238.0475:173.0322|359.0807:337.079:238.0478|359.0803:337.0786:357.0848,359.0801;357.0848;337.0788;284.05275;256.0579;238.0474;190.0462;173.0322;145.0259;123.0352;75.0228;75.004;74.01505,CASMI_2016;Eawag;UFZ,NA,NA,NA,NA,NA,NA
stpQQR262,"Bromoxynil|3,5-dibromo-4-hydroxybenzonitrile",Oc1c(Br)cc(cc1Br)C#N,274.85814,C7H3Br2NO,"InChI=1S/C7H3Br2NO/c8-5-1-4(3-10)2-6(9)7(5)11/h1-2,11H",CAS_RN: 1689-84-5,15531,UPMXNNIRAGDFEH-UHFFFAOYSA-N,14775,DTXSID3022162,Negative,NA,NA,NA,NA,NA,NA,SM844052;EA002451|EA002452|EA002453|EA002454|EA002455|EA002456|EA002457|EA002458|EA002459|EA002460|EA002461|EA002462|EA002463|EA002464,[M-H]-;[M-H]-,HCD35;CID35|HCD15|HCD30|HCD45|HCD60|HCD75|HCD90|HCD15|HCD30|HCD45|HCD60|HCD75|HCD90|CID35,273.8508:193.9246:166.9377;78.9189:273.8508|273.851|273.8509:78.9188|78.9189:273.8509:193.925|78.9189:273.8512:193.9241|78.9189:273.8501:193.9248|78.9189|273.8509|273.851:78.9189|78.9189:273.8508:193.9249|78.9189:273.8506:193.9252|78.9188:273.8512:193.9246|78.9188|78.9189:273.8505,273.8509;193.9248;166.9377;78.9189,CASMI_2016;Eawag
stpQQR263,"2-Hydroxyatrazine|Hydroxyatrazine|2-(ethylamino)-6-(propan-2-ylamino)-1H-1,3,5-triazin-4-one",CCNC1=NC(=O)N=C(NC(C)C)N1,197.12766,C8H15N5O,"InChI=1S/C8H15N5O/c1-4-9-6-11-7(10-5(2)3)13-8(14)12-6/h5H,4H2,1-3H3,(H3,9,10,11,12,13,14)",CAS_RN: 2163-68-0,16553,NFMIMWNQWAWNDW-UHFFFAOYSA-N,15693,DTXSID6037807,Positive/Negative,SM844101;EA027901|EA027902|EA027903|EA027904|EA027905|EA027906|EA027907|EA027908|EA027909|EA027910|EA027911|EA027912|EA027913|EA027914,[M+H]+;[M+H]+,HCD35;CID35|HCD15|HCD30|HCD45|HCD60|HCD75|HCD90|HCD15|HCD30|HCD45|HCD60|HCD75|HCD90|CID35,198.1349:156.088:86.0349;156.0881:114.0663:128.082|198.1349|198.135:156.0882:114.0662|198.1352:156.0882:114.0663|156.0881:114.0663:198.1353|156.0882:114.0663:86.035|69.0084:86.035:114.0663|198.135:156.0882|198.1351:156.0882:114.0663|198.1351:156.0881:114.0663|156.088:114.0663:198.1351|156.0881:114.0663:86.035|69.0084:86.035:114.0663|156.0881:114.0663:128.082,156.0881;128.082;114.0663;86.035;69.0084,CASMI_2016;Eawag,SM844151;EA027951|EA027952|EA027953|EA027954|EA027955|EA027956|EA027957|EA027958|EA027959|EA027960|EA027963,[M-H]-;[M-H]-,HCD35;CID35|HCD15|HCD30|HCD45|HCD60|HCD75|HCD90|HCD15|HCD30|HCD45|HCD90,196.1203:125.0828:165.0976;154.0736:196.1206:125.0835|196.1206|196.1206:154.0736:83.0613|196.1206:83.0614:154.0736|83.0616:154.0733:69.0459|83.0615:69.0457|83.0614:69.0457|196.1203|196.1204:154.0732:125.0835|196.1205:83.0615:154.0733|83.0614,196.12055;165.0976;154.07345;125.0835;83.0614;69.0457,CASMI_2016;Eawag
stpQQR264,"Triadimenol|1-(4-chlorophenoxy)-3,3-dimethyl-1-(1,2,4-triazol-1-yl)butan-2-ol",CC(C)(C)C(O)C(Oc1ccc(Cl)cc1)n1cncn1,295.10875,C14H18ClN3O2,"InChI=1S/C14H18ClN3O2/c1-14(2,3)12(19)13(18-9-16-8-17-18)20-11-6-4-10(15)5-7-11/h4-9,12-13,19H,1-3H3",CAS_RN: 89497-63-2,41368,BAZVSMNPJJMILC-UHFFFAOYSA-N,37749,DTXSID0032493,Positive,SM844202,[M+H]+,HCD35,70.0401:99.0805:227.0833,227.0833;99.0805;70.0401,CASMI_2016,NA,NA,NA,NA,NA,NA