NORMAN_ID,NAME,SMILES,NEUTRAL_EXACT_MASS,FORMULA,StdInChI,CAS_RN,PUBCHEM_CID,InChIKey,CHEMSPIDER_ID,DTXSID,Preferable Ionization,MB_Records Positive Ionization,Adduct Positive Ionization,Ionisation type and collision energy Positive Ionization,Fragments Positive Ionization,Simplified_fragments_Positive,Institute Positive Ionization,MB_Records Negative Ionization,Adduct Negative Ionization,Ionisation type and collision energy Negative Ionization,Fragments Negative Ionization,Simplified_fragments_Negative,Institute Negative Ionization
stpQQR507,"Perfluorooctanesulfonamide|1,1,2,2,3,3,4,4,5,5,6,6,7,7,8,8,8-heptadecafluorooctane-1-sulfonamide",NS(=O)(=O)C(F)(F)C(F)(F)C(F)(F)C(F)(F)C(F)(F)C(F)(F)C(F)(F)C(F)(F)F,498.95348,C8H2F17NO2S,"InChI=1S/C8H2F17NO2S/c9-1(10,3(13,14)5(17,18)7(21,22)23)2(11,12)4(15,16)6(19,20)8(24,25)29(26,27)28/h(H2,26,27,28)",CAS_RN: 754-91-6,69785,RRRXPPIDPYTNJG-UHFFFAOYSA-N,62984,DTXSID3038939,Negative,NA,NA,NA,NA,NA,NA,SM883551,[M-H]-,HCD35,497.9466:168.9892:118.992,497.9466;168.9892;118.992,CASMI_2016
stpQQR508,"6:2 Fluorotelomer sulfonic acid|3,3,4,4,5,5,6,6,7,7,8,8,8-tridecafluorooctane-1-sulfonic acid",[H]C([H])(C([H])([H])S(O)(=O)=O)C(F)(F)C(F)(F)C(F)(F)C(F)(F)C(F)(F)C(F)(F)F,427.97518,C8H5F13O3S,"InChI=1S/C8H5F13O3S/c9-3(10,1-2-25(22,23)24)4(11,12)5(13,14)6(15,16)7(17,18)8(19,20)21/h1-2H2,(H,22,23,24)",CAS_RN: 2845-62-7,119688,VIONGDJUYAYOPU-UHFFFAOYSA-N,106865,DTXSID6067331,Negative,NA,NA,NA,NA,NA,NA,SM883655,[M-H]-,HCD35,426.968:406.9618,426.968;406.9618,CASMI_2016
stpQQR509,Tetraglyme|1-methoxy-2-[2-[2-(2-methoxyethoxy)ethoxy]ethoxy]ethane,COCCOCCOCCOCCOC,222.14672,C10H22O5,"InChI=1S/C10H22O5/c1-11-3-5-13-7-9-15-10-8-14-6-4-12-2/h3-10H2,1-2H3",CAS_RN: 143-24-8,8925,ZUHZGEOKBKGPSW-UHFFFAOYSA-N,13835433,DTXSID7044396,Positive,SM883701;EQ316401|EQ316402|EQ316403|EQ316404|EQ316405|EQ316406|EQ316407|EQ316408|EQ316409,[M+H]+;[M+H]+,HCD35;HCD15|HCD30|HCD45|HCD60|HCD75|HCD90|HCD120|HCD150|HCD180,59.0493:103.0754:147.1016;103.0754:59.0491:147.1016|59.0491:103.0753:89.0597|59.0491:103.0753:89.0597|59.0491:103.0754:89.0597|59.0491:103.0754|59.0491:103.0753:53.0023|59.0492:53.0022|59.0492:53.0021|59.0492:53.0023,147.1016;103.0754;89.0597;59.0491;53.00225,CASMI_2016;Eawag,NA,NA,NA,NA,NA,NA
stpQQR510,"4-(Dimethylamino)pyridine|4-Dimethylaminopyridine|N,N-dimethylpyridin-4-amine",CN(C)C1=CC=NC=C1,122.0844,C7H10N2,"InChI=1S/C7H10N2/c1-9(2)7-3-5-8-6-4-7/h3-6H,1-2H3",CAS_RN: 1122-58-3,14284,VHYFNPMBLIVWCW-UHFFFAOYSA-N,13646,DTXSID0044369,Positive,SM883903,[M+H]+,HCD35,123.0914:108.0681:107.0602,108.0681;107.0602,CASMI_2016,NA,NA,NA,NA,NA,NA
stpQQR511,7-Amino-4-methylcoumarin|7-amino-4-methylchromen-2-one,CC1=CC(=O)OC2=CC(N)=CC=C12,175.06333,C10H9NO2,"InChI=1S/C10H9NO2/c1-6-4-10(12)13-9-5-7(11)2-3-8(6)9/h2-5H,11H2,1H3",CAS_RN: 26093-31-2,92249,GLNDAGDHSLMOKX-UHFFFAOYSA-N,83285,DTXSID40885333,Positive,SM884001,[M+H]+,HCD35,176.0706:120.0808:117.0573,120.0808;117.0573,CASMI_2016,NA,NA,NA,NA,NA,NA
stpQQR512,"2-(4-Morpholinyl)benzothiazole|4-(1,3-benzothiazol-2-yl)morpholine",C1CN(CCO1)C1=NC2=CC=CC=C2S1,220.06703,C11H12N2OS,"InChI=1S/C11H12N2OS/c1-2-4-10-9(3-1)12-11(15-10)13-5-7-14-8-6-13/h1-4H,5-8H2",CAS_RN: 4225-26-7,77901,VVUVJGRVEYHIHC-UHFFFAOYSA-N,70292,DTXSID90891505,Positive,SM884101,[M+H]+,HCD35,221.0744:177.0481:150.0373,177.0481;150.0373,CASMI_2016,NA,NA,NA,NA,NA,NA
stpQQR513,"2-Morpholinothiobenzothiazole|2-(Morpholinothio)benzothiazole|4-(1,3-benzothiazol-2-ylsulfanyl)morpholine",C1CN(CCO1)SC1=NC2=CC=CC=C2S1,252.03911,C11H12N2OS2,"InChI=1S/C11H12N2OS2/c1-2-4-10-9(3-1)12-11(15-10)16-13-5-7-14-8-6-13/h1-4H,5-8H2",CAS_RN: 102-77-2,7619,MHKLKWCYGIBEQF-UHFFFAOYSA-N,7337,DTXSID0021096,Positive,SM884202,[M+H]+,HCD35,253.0465:86.0601:87.0679,87.0679;86.0601,CASMI_2016,NA,NA,NA,NA,NA,NA
stpQQR514,7-Diethylamino-4-methylcoumarin|7-(Diethylamino)-4-methylchromen-2-one,CCN(CC)C1=CC=C2C(C)=CC(=O)OC2=C1,231.12593,C14H17NO2,"InChI=1S/C14H17NO2/c1-4-15(5-2)11-6-7-12-10(3)8-14(16)17-13(12)9-11/h6-9H,4-5H2,1-3H3",CAS_RN: 91-44-1,7050,AFYCEAFSNDLKSX-UHFFFAOYSA-N,6783,DTXSID9025035,Positive,SM884302,[M+H]+,HCD35,232.1333:203.0941:188.0706,203.0941;188.0706,CASMI_2016,NA,NA,NA,NA,NA,NA
stpQQR515,Anthranilic acid|2-Azaniumylbenzoate,NC1=CC=CC=C1C(O)=O,137.04768,C7H7NO2,"InChI=1S/C7H7NO2/c8-6-4-2-1-3-5(6)7(9)10/h1-4H,8H2,(H,9,10)",CAS_RN: 118-92-3,227,RWZYAGGXGHYGMB-UHFFFAOYSA-N,222,DTXSID8020094,Positive,SM800901;SM884401,[M+H]+;[M+H]+,HCD35;HCD35,120.0444:92.0495:138.055;120.0444:92.0495:138.0549,120.0444;92.0495,CASMI_2016;CASMI_2016,NA,NA,NA,NA,NA,NA
stpQQR516,"Fipronil sulfide|5-amino-1-[2,6-dichloro-4-(trifluoromethyl)phenyl]-4-(trifluoromethylsulfanyl)pyrazole-3-carbonitrile|5-amino-1-[2,6-dichloro-4-(trifluoromethyl)phenyl]-4-(trifluoromethylsulfanyl)pyrazole-3-carbonitrile",C1=C(C=C(C(=C1Cl)N2C(=C(C(=N2)C#N)SC(F)(F)F)N)Cl)C(F)(F)F,419.94379,C12H4Cl2F6N4S,"InChI=1S/C12H4Cl2F6N4S/c13-5-1-4(11(15,16)17)2-6(14)8(5)24-10(22)9(7(3-21)23-24)25-12(18,19)20/h1-2H,22H2",CAS_RN: 120067-83-6,9953940,FQXWEKADCSXYOC-UHFFFAOYSA-N,8129550,DTXSID50869644,Positive/Negative,EA266801|EA266802|EA266803|EA266804|EA266805|EA266806|EA266807|EA266808|EA266809|EA266810|EA266811|EA266812|EA266813|EA266814,[M+H]+,CID35|HCD15|HCD30|HCD45|HCD60|HCD75|HCD90|HCD15|HCD30|HCD45|HCD60|HCD75|HCD90|CID35,316.9867:319.9834:335.9368|420.9506:421.9546:319.9832|420.9506:316.9868:319.9839|316.9866:420.9507:264.9807|316.9866:264.9807:289.9757|237.9697:262.965:264.9806|237.9696:262.9649:247.9538|420.9506:421.9526|420.9508:316.9869:319.9838|316.9866:420.9506:264.9806|316.9866:264.9806:289.9758|237.9696:262.9648:264.9805|237.9696:262.9649:201.993|316.9867:319.9835:335.9367,335.93675;319.9835;316.98665;289.97575;264.9806;262.9649;247.9538;237.9696;201.993,Eawag,SM884552;EA266853|EA266854|EA266859|EA266860,[M-H]-;[M-H]-,HCD35;HCD30|HCD45|HCD30|HCD45,382.9599:261.9586:217.9864;313.9637:170.0096|170.0096|313.9642:170.0095|170.0096,382.9599;313.96395;261.9586;217.9864;170.0096,CASMI_2016;Eawag
stpQQR517,"Fipronil sulfone|5-amino-1-[2,6-dichloro-4-(trifluoromethyl)phenyl]-4-(trifluoromethylsulfonyl)pyrazole-3-carbonitrile|5-amino-1-[2,6-dichloro-4-(trifluoromethyl)phenyl]-4-(trifluoromethylsulfonyl)pyrazole-3-carbonitrile",C1=C(C=C(C(=C1Cl)N2C(=C(C(=N2)C#N)S(=O)(=O)C(F)(F)F)N)Cl)C(F)(F)F,451.93362,C12H4Cl2F6N4O2S,"InChI=1S/C12H4Cl2F6N4O2S/c13-5-1-4(11(15,16)17)2-6(14)8(5)24-10(22)9(7(3-21)23-24)27(25,26)12(18,19)20/h1-2H,22H2",CAS_RN: 120068-36-2,3078139,LGHZJDKSVUTELU-UHFFFAOYSA-N,2336427,DTXSID6074750,Negative,NA,NA,NA,NA,NA,NA,SM884652;EA266751|EA266752|EA266753|EA266754|EA266755|EA266756|EA266757|EA266758|EA266759|EA266760|EA266761|EA266762|EA266763|EA266764,[M-H]-;[M-H]-,HCD35;CID35|HCD15|HCD30|HCD45|HCD60|HCD75|HCD90|HCD15|HCD30|HCD45|HCD60|HCD75|HCD90|CID35,414.9499:281.9925:243.9895;414.9498|414.9506:450.9267|414.9508:281.9928:183.0179|281.993:243.9898:183.0181|243.9898:218.0102:246.0164|243.9897:218.01:122.0037|243.9899:148.0071:122.0038|414.9496:450.9262|414.9499:281.9927:183.018|281.9929:243.9897:183.0178|243.9896:218.01:246.0161|243.9898:218.0101:148.0069|243.9899:148.0071:208.0125|414.9496,450.92645;414.9499;281.9928;246.01625;243.9898;218.01005;208.0125;183.01795;148.0071;122.00375,CASMI_2016;Eawag
stpQQR518,"N-Cyclohexyl-2-benzothiazol-amine|N-cyclohexyl-1,3-benzothiazol-2-amine",C1CCC(CC1)NC1=NC2=CC=CC=C2S1,232.10342,C13H16N2S,"InChI=1S/C13H16N2S/c1-2-6-10(7-3-1)14-13-15-11-8-4-5-9-12(11)16-13/h4-5,8-10H,1-3,6-7H2,(H,14,15)",CAS_RN: 28291-75-0,591790,UPWPIFMHSFSVLE-UHFFFAOYSA-N,514454,DTXSID50891506,Positive,SM884701,[M+H]+,HCD35,233.1107:151.0325:83.0855,151.0325;83.0855,CASMI_2016,NA,NA,NA,NA,NA,NA
stpQQR519,"Fipronil desulfinyl|5-amino-1-[2,6-dichloro-4-(trifluoromethyl)phenyl]-4-(trifluoromethyl)pyrazole-3-carbonitrile",NC1=C(C(=NN1C1=C(Cl)C=C(C=C1Cl)C(F)(F)F)C#N)C(F)(F)F,387.97172,C12H4Cl2F6N4,"InChI=1S/C12H4Cl2F6N4/c13-5-1-4(11(15,16)17)2-6(14)9(5)24-10(22)8(12(18,19)20)7(3-21)23-24/h1-2H,22H2",CAS_RN: 205650-65-3,22673275,JWKXVHLIRTVXLD-UHFFFAOYSA-N,11542895,DTXSID0043719,Negative,NA,NA,NA,NA,NA,NA,SM884952;EA266951|EA266952|EA266953|EA266964,[M-H]-;[M-H]-,HCD35;CID35|HCD15|HCD30|CID35,350.9878:281.9926:330.9817;350.9876|350.9871|350.9873|350.9877,350.9876;330.9817;281.9926,CASMI_2016;Eawag
stpQQR520,CLC_301.1468_14.3|Chlorcyclizine|1-[(4-chlorophenyl)-phenylmethyl]-4-methylpiperazine,CN1CCN(CC1)C(C1=CC=CC=C1)C1=CC=C(Cl)C=C1,300.1393,C18H21ClN2,"InChI=1S/C18H21ClN2/c1-20-11-13-21(14-12-20)18(15-5-3-2-4-6-15)16-7-9-17(19)10-8-16/h2-10,18H,11-14H2,1H3",CAS_RN: 82-93-9,2710,WFNAKBGANONZEQ-UHFFFAOYSA-N,2609,DTXSID9048011,Positive,EQ347601|EQ347602|EQ347603|EQ347604|EQ347605|EQ347606|EQ347607|EQ347608|EQ347609;ET010001|ET010002|ET010003|ET010004|ET010005,[M+H]+;[M+H]+,"HCD15|HCD30|HCD45|HCD60|HCD75|HCD90|HCD120|HCD150|HCD180;HCD15, 30, 45, 60, 70 or 90|HCD15, 30, 45, 60, 70 or 90|HCD15, 30, 45, 60, 70 or 90|HCD15, 30, 45, 60, 70 or 90|HCD15, 30, 45, 60, 70 or 90",201.0464:99.0916:165.0696|201.0465:166.0778:165.0696|201.0465:166.0777:165.0699|166.0777:201.0465:165.0699|166.0777:165.0699:201.0465|165.0699:166.0777:199.0309|165.0699:164.0621:115.0542|165.0698:164.062:115.0542|163.0542:165.0699:115.0542;201.0466:166.0777:165.0694|201.0466:166.0778:165.07|166.0779:165.0702:201.0466|166.0777:165.0702:201.0466|165.0702:166.0775:199.031,201.0465;199.03095;166.0777;165.0699;164.06205;163.0542;115.0542;99.0916,Eawag;Eawag_Additional_Specs,NA,NA,NA,NA,NA,NA
stpQQR521,CLC_317.1417_14.6,NA,316.1342,C18H21ClN2O,NA,CAS_RN: NA,NA,NA,NA,NA,Positive,ET010101|ET010102|ET010103|ET010104|ET010105|ET010106,[M+H]+,HCD15|HCD30|HCD45|HCD60|HCD75|HCD90,317.1415:300.1389:201.0464|201.0466:241.0653:317.1416|201.0465:240.0575:228.0575|166.0778:228.0575:201.0466|166.0777:165.07:228.0575|165.0699:166.0777:228.0575,300.1389;241.0653;240.0575;228.0575;201.04655;166.0777;165.06995,Eawag_Additional_Specs,NA,NA,NA,NA,NA,NA
stpQQR522,"CLE_291.1026_12.2|Clensiopenterol|1-(4-amino-3,5-dichlorophenyl)-2-(3-methylbutylamino)ethanol",CC(C)CCNCC(O)C1=CC(Cl)=C(N)C(Cl)=C1,290.0953,C13H20Cl2N2O,"InChI=1S/C13H20Cl2N2O/c1-8(2)3-4-17-7-12(18)9-5-10(14)13(16)11(15)6-9/h5-6,8,12,17-18H,3-4,7,16H2,1-2H3",CAS_RN: NA,71312596,KWAPEXIWYNEGAV-UHFFFAOYSA-N,NA,NA,Positive,ET020001|ET020002|ET020003|ET020004|ET020005,[M+H]+,"HCD15, 30, 45, 60, 70 or 90|HCD15, 30, 45, 60, 70 or 90|HCD15, 30, 45, 60, 70 or 90|HCD15, 30, 45, 60, 70 or 90|HCD15, 30, 45, 60, 70 or 90",153.0336:132.0678:168.0444|273.091:291.1014:217.0288|273.091:217.0288:188.0023|188.0023:217.0288:203.013|188.0023:153.0335:132.0678,273.091;217.0288;203.013;188.0023;168.0444;153.03355;132.0678,Eawag_Additional_Specs,NA,NA,NA,NA,NA,NA
stpQQR523,CPP_287.1310_14.5|Norchlorcyclizine|1-[(4-chlorophenyl)-phenylmethyl]piperazine,ClC1=CC=C(C=C1)C(N1CCNCC1)C1=CC=CC=C1,286.1237,C17H19ClN2,"InChI=1S/C17H19ClN2/c18-16-8-6-15(7-9-16)17(14-4-2-1-3-5-14)20-12-10-19-11-13-20/h1-9,17,19H,10-13H2",CAS_RN: 303-26-4,9340,UZKBSZSTDQSMDR-UHFFFAOYSA-N,8976,NA,Positive,EQ338301|EQ338302|EQ338303|EQ338304|EQ338305|EQ338306|EQ338307|EQ338308|EQ338309;ET030001|ET030002|ET030003|ET030004|ET030005,[M+H]+;[M+H]+,"HCD15|HCD30|HCD45|HCD60|HCD75|HCD90|HCD120|HCD150|HCD180;HCD15, 30, 45, 60, 70 or 90|HCD15, 30, 45, 60, 70 or 90|HCD15, 30, 45, 60, 70 or 90|HCD15, 30, 45, 60, 70 or 90|HCD15, 30, 45, 60, 70 or 90",201.0466:287.1311:165.0691|201.0465:166.0778:165.0697|201.0466:166.0778:165.07|166.0777:201.0466:165.07|166.0777:165.07:201.0466|165.07:166.0777:199.031|165.0699:164.0622:166.0778|165.07:164.0622:115.0543|165.07:163.0544:115.0543;201.0464:166.0772:85.0761|201.0464:166.0776:165.0694|201.0464:166.0777:165.0698|166.0778:165.07:201.0464|166.0775:165.07:201.0464,201.04645;199.031;166.0777;165.07;164.0622;163.0544;115.0543;85.0761,Eawag;Eawag_Additional_Specs,NA,NA,NA,NA,NA,NA
stpQQR524,CPP_387.1471_17.0|N-succinyl-1[(4-chlorophenyl)phenylmethyl]piperazine,OC(=O)CCC(=O)N1CCN(CC1)C(C1=CC=CC=C1)C1=CC=C(Cl)C=C1,386.1397,C21H23ClN2O3,"InChI=1S/C21H23ClN2O3/c22-18-8-6-17(7-9-18)21(16-4-2-1-3-5-16)24-14-12-23(13-15-24)19(25)10-11-20(26)27/h1-9,21H,10-15H2,(H,26,27)",CAS_RN: NA,NA,PZFKWKDGOCAIDK-UHFFFAOYSA-N,NA,NA,Positive,ET030101|ET030102|ET030103|ET030104|ET030105|ET030106,[M+H]+,HCD15|HCD30|HCD45|HCD60|HCD75|HCD90,201.0466:105.07:60.0808|201.0467:105.0699:60.0808|201.0466:166.0779:105.0697|166.0778:165.0699:201.0464|166.0778:165.0699:105.0699|165.07:166.0778:91.0545,201.0466;166.0778;165.0699;105.0699;91.0545;60.0808,Eawag_Additional_Specs,NA,NA,NA,NA,NA,NA
stpQQR525,CPP_329.1415_17.9|N-acetyl-1[(4-chlorophenyl)phenylmethyl]piperazine|1-[4-[(4-chlorophenyl)-phenylmethyl]piperazin-1-yl]ethanone,CC(=O)N1CCN(CC1)C(C1=CC=CC=C1)C1=CC=C(Cl)C=C1,328.1342,C19H21ClN2O,"InChI=1S/C19H21ClN2O/c1-15(23)21-11-13-22(14-12-21)19(16-5-3-2-4-6-16)17-7-9-18(20)10-8-17/h2-10,19H,11-14H2,1H3",CAS_RN: NA,14070361,SQGNETKFPNXNSE-UHFFFAOYSA-N,22773779,NA,Positive,ET030201|ET030202|ET030203|ET030204|ET030205|ET030206,[M+H]+,HCD15|HCD30|HCD45|HCD60|HCD75|HCD90,251.0002:201.0464:77.0155|201.0463:77.0151:251|77.0151:201.0462:81.9814|77.0151:166.0773:165.0702|80.9735:77.0151:166.0771|80.9734:165.0698:77.015,251.0001;201.0463;166.0772;165.07;81.9814;80.97345;77.0151,Eawag_Additional_Specs,NA,NA,NA,NA,NA,NA
stpQQR526,"DCA_156.0575_17.7|4-Chloro-N,N-dimethylaniline|N,N-dimethyl-p-chloroaniline",CN(C)C1=CC=C(Cl)C=C1,155.0502,C8H10ClN,"InChI=1S/C8H10ClN/c1-10(2)8-5-3-7(9)4-6-8/h3-6H,1-2H3",CAS_RN: 698-69-1,136530,IONGEXNDPXANJD-UHFFFAOYSA-N,21539183,DTXSID50220099,Positive,EQ347701|EQ347702|EQ347703|EQ347704|EQ347705|EQ347706|EQ347707|EQ347708|EQ347709;ET040001|ET040002|ET040003|ET040004|ET040005,[M+H]+;[M+H]+,"HCD15|HCD30|HCD45|HCD60|HCD75|HCD90|HCD120|HCD150|HCD180;HCD15, 30, 45, 60, 70 or 90|HCD15, 30, 45, 60, 70 or 90|HCD15, 30, 45, 60, 70 or 90|HCD15, 30, 45, 60, 70 or 90|HCD15, 30, 45, 60, 70 or 90",156.0572:141.0338:121.0885|156.0573:141.0338:121.0885|141.0338:156.0573:121.0885|141.0338:156.0573:140.026|141.0338:140.026:156.0573|140.026:141.0338:106.065|140.026:141.0338:105.0572|140.026:105.0572:139.0057|75.0228:139.0057:140.026;140.0263:141.0338:106.0652|156.0576:141.034:121.0886|156.0576:141.034:121.0886|141.0341:156.0575:140.0263|141.0341:156.0575:140.0264,141.0338;140.026;139.0057;121.0885;106.0651;105.0572;75.0228,Eawag;Eawag_Additional_Specs,NA,NA,NA,NA,NA,NA
stpQQR527,DCA_142.0419_14.6|4-chloro-N-methylaniline,CNC1=CC=C(Cl)C=C1,141.0345,C7H8ClN,"InChI=1S/C7H8ClN/c1-9-7-4-2-6(8)3-5-7/h2-5,9H,1H3",CAS_RN: 932-96-7,70272,XCEYKKJMLOFDSS-UHFFFAOYSA-N,21171395,DTXSID80239331,Positive,EQ347801|EQ347802|EQ347803|EQ347804|EQ347805|EQ347806|EQ347807|EQ347808|EQ347809;ET040201,[M+H]+;[M+H]+,HCD15|HCD30|HCD45|HCD60|HCD75|HCD90|HCD120|HCD150|HCD180;HCD160-0.41mz or 15 (mz>350) nominal units,142.0417:127.0182:107.0728|142.0417:127.0182:107.0728|127.0182:142.0417:107.0728|127.0182:142.0417:107.0729|127.0182:142.0418:107.0729|127.0182:100.0074:92.0494|127.0183:92.0494:100.0074|65.0385:127.0183:92.0494|65.0385:92.0494:127.0183;127.0183:100.0074:92.0494,127.0182;107.0728;100.0074;92.0494;65.0385,Eawag;Eawag_Additional_Specs,NA,NA,NA,NA,NA,NA
stpQQR528,DCA_170.0367_15.5|4`-Chloro-N-methylformanilide|N-(4-chlorophenyl)-N-methylformamide,CN(C=O)C1=CC=C(Cl)C=C1,169.0294,C8H8ClNO,"InChI=1S/C8H8ClNO/c1-10(6-11)8-4-2-7(9)3-5-8/h2-6H,1H3",CAS_RN: 26772-93-0,319488,XWQPXHSGRKRZPV-UHFFFAOYSA-N,282845,DTXSID80312875,Positive,ET040301|ET040302|ET040303|ET040304|ET040305|ET040306,[M+H]+,HCD15|HCD30|HCD45|HCD60|HCD75|HCD90,170.0366:107.0729:129.0101|170.0366:107.0729:129.0101|170.0366:107.0729:129.0101|107.0729:170.0366:129.0101|107.0729:106.0651:127.0183|106.0651:107.0728:127.0182,129.0101;127.01825;107.0729;106.0651,Eawag_Additional_Specs,NA,NA,NA,NA,NA,NA
stpQQR529,DCA_172.0523_8.8|5-Chloro-2-dimethylamino-phenol|5-chloro-2-(dimethylamino)phenol,NA,171.0451,C8H10ClNO,NA,CAS_RN: NA,NA,NA,NA,NA,Positive,ET040401|ET040402|ET040403|ET040404|ET040405|ET040406,[M+H]+,HCD15|HCD30|HCD45|HCD60|HCD75|HCD90,155.0496:172.0523:137.0835|155.0496:172.0523:137.0835|155.0496:154.0417:137.0835|155.0496:154.0418:137.0836|154.0418:155.0496:72.0443|154.0418:155.0496:119.0729,155.0496;154.0418;137.0835;119.0729;72.0443,Eawag_Additional_Specs,NA,NA,NA,NA,NA,NA
stpQQR530,DEP_188.1433_10.1|Deprenyl (Selegiline)|N-methyl-1-phenyl-N-prop-2-ynylpropan-2-amine,CC(CC1=CC=CC=C1)N(C)CC#C,187.1361,C13H17N,"InChI=1S/C13H17N/c1-4-10-14(3)12(2)11-13-8-6-5-7-9-13/h1,5-9,12H,10-11H2,2-3H3",CAS_RN: 2323-36-6,5195,MEZLKOACVSPNER-UHFFFAOYSA-N,5007,DTXSID60860142,Positive,ET050001|ET050002|ET050003|ET050004|ET050005,[M+H]+,"HCD15, 30, 45, 60, 70 or 90|HCD15, 30, 45, 60, 70 or 90|HCD15, 30, 45, 60, 70 or 90|HCD15, 30, 45, 60, 70 or 90|HCD15, 30, 45, 60, 70 or 90",91.0543:65.0389:70.0654|91.0543:65.0389:70.0654|119.0856:188.1435:91.0543|91.0543:119.0856:188.1435|91.0543:119.0856:70.0654,119.0856;91.0543;70.0654;65.0389,Eawag_Additional_Specs,NA,NA,NA,NA,NA,NA
stpQQR531,DEP_204.1383_10.9|Deprenyl N-Oxide|N-methyl-1-phenyl-N-prop-2-ynylpropan-2-amine oxide,CC(CC1=CC=CC=C1)N(C)(=O)CC#C,203.131,C13H17NO,"InChI=1S/C13H17NO/c1-4-10-14(3,15)12(2)11-13-8-6-5-7-9-13/h1,5-9,12H,10-11H2,2-3H3",CAS_RN: NA,11447032,IVFPCTFUZXEDKP-UHFFFAOYSA-N,9621885,NA,Positive,AU211701|AU211702|AU211703;EQ346101|EQ346102|EQ346103|EQ346104|EQ346105|EQ346106|EQ346107|EQ346108|EQ346109;ET050101|ET050102|ET050103|ET050104|ET050105,[M+H]+;[M+H]+;[M+H]+,"CID10|CID20|CID30;HCD15|HCD30|HCD45|HCD60|HCD75|HCD90|HCD120|HCD150|HCD180;HCD15, 30, 45, 60, 70 or 90|HCD15, 30, 45, 60, 70 or 90|HCD15, 30, 45, 60, 70 or 90|HCD15, 30, 45, 60, 70 or 90|HCD15, 30, 45, 60, 70 or 90",204.1375:119.0847:205.1406|119.0848:120.0878:204.1385|119.0842;119.0855:91.0542:204.1384|119.0856:91.0542:86.06|91.0542:119.0856:86.0601|91.0542:86.0601:119.0856|91.0542:68.0495:86.0601|91.0542:65.0386:68.0495|91.0542:65.0386:68.0495|91.0543:65.0386:63.023|65.0386:91.0543:63.023;91.0544:119.0858:86.0602|91.0544:86.0603:119.0858|91.0544:68.0498:65.039|91.0544:65.039:68.0498|119.0858:91.0544:204.1388,120.0878;119.0856;91.05425;86.0601;68.0495;65.0386;63.023,Athens_Univ;Eawag;Eawag_Additional_Specs,NA,NA,NA,NA,NA,NA
stpQQR532,DEP_150.1278_9.6|Methamphetamine|N-methyl-1-phenylpropan-2-amine,CNC(C)CC1=CC=CC=C1,149.1204,C10H15N,"InChI=1S/C10H15N/c1-9(11-2)8-10-6-4-3-5-7-10/h3-7,9,11H,8H2,1-2H3",CAS_RN: 537-46-2,1206,MYWUZJCMWCOHBA-UHFFFAOYSA-N,1169,DTXSID3043861,Positive,AU156006;ET050201|ET050202|ET050203|ET050204|ET050205|ET050206,[M+H]+;[M+H]+,CIDRAMP 16.2-24.3;HCD15|HCD30|HCD45|HCD60|HCD75|HCD90,91.055:92.0577:119.0863;91.0543:119.0856:150.1279|91.0543:119.0857:150.1278|91.0543:119.0856:150.1278|91.0543:119.0856:65.0385|91.0543:65.0386:119.0857|91.0543:65.0387,119.08565;92.0577;91.0543;65.0386,Athens_Univ;Eawag_Additional_Specs,NA,NA,NA,NA,NA,NA
stpQQR533,DEP_174.1277_10.3|N-desmethyldeprenyl (Desmethylselegiline)|1-phenyl-N-prop-2-ynylpropan-2-amine,CC(CC1=CC=CC=C1)NCC#C,173.1204,C12H15N,"InChI=1S/C12H15N/c1-3-9-13-11(2)10-12-7-5-4-6-8-12/h1,4-8,11,13H,9-10H2,2H3",CAS_RN: 18913-84-3,200718,UUFAJPMQSFXDFR-UHFFFAOYSA-N,173756,NA,Positive,AU211801|AU211802|AU211803;EQ328101|EQ328102|EQ328103|EQ328104|EQ328105|EQ328106|EQ328107|EQ328108|EQ328109;ET050301|ET050302|ET050303|ET050304|ET050305,[M+H]+;[M+H]+;[M+H]+,"CID10|CID20|CID30;HCD15|HCD30|HCD45|HCD60|HCD75|HCD90|HCD120|HCD150|HCD180;HCD15, 30, 45, 60, 70 or 90|HCD15, 30, 45, 60, 70 or 90|HCD15, 30, 45, 60, 70 or 90|HCD15, 30, 45, 60, 70 or 90|HCD15, 30, 45, 60, 70 or 90",174.1271:119.0851:175.1297|119.085:174.1269:120.0882|119.085:115.0545;91.0542:119.0855:174.1277|91.0542:119.0855:174.1277|91.0542:119.0855:56.0494|91.0542:119.0855:56.0495|91.0542:56.0495:65.0385|91.0542:65.0386:56.0495|91.0542:65.0385:63.0229|91.0542:65.0386:63.0229|65.0386:91.0542:63.0229;91.0541:119.0853:65.0386|91.0541:65.0387:119.0857|91.054:65.0387:63.0231|91.054:119.0853:174.1274|91.054:119.0853:174.1274,120.0882;119.0853;115.0545;91.0542;65.0386;63.0229;56.0495,Athens_Univ;Eawag;Eawag_Additional_Specs,NA,NA,NA,NA,NA,NA