NORMAN_ID,NAME,SMILES,NEUTRAL_EXACT_MASS,FORMULA,StdInChI,CAS_RN,PUBCHEM_CID,InChIKey,CHEMSPIDER_ID,DTXSID,Preferable Ionization,MB_Records Positive Ionization,Adduct Positive Ionization,Ionisation type and collision energy Positive Ionization,Fragments Positive Ionization,Simplified_fragments_Positive,Institute Positive Ionization,MB_Records Negative Ionization,Adduct Negative Ionization,Ionisation type and collision energy Negative Ionization,Fragments Negative Ionization,Simplified_fragments_Negative,Institute Negative Ionization
stpQQR354,"Pravastatin|(3R,5R)-7-[(1S,2S,6S,8S,8aR)-6-hydroxy-2-methyl-8-[(2S)-2-methylbutanoyl]oxy-1,2,6,7,8,8a-hexahydronaphthalen-1-yl]-3,5-dihydroxyheptanoic acid",CC[C@H](C)C(=O)O[C@H]1C[C@H](O)C=C2C=C[C@H](C)[C@H](CC[C@@H](O)C[C@@H](O)CC(O)=O)[C@@H]12,424.2461,C23H36O7,"InChI=1S/C23H36O7/c1-4-13(2)23(29)30-20-11-17(25)9-15-6-5-14(3)19(22(15)20)8-7-16(24)10-18(26)12-21(27)28/h5-6,9,13-14,16-20,22,24-26H,4,7-8,10-12H2,1-3H3,(H,27,28)/t13-,14-,16+,17+,18+,19-,20-,22-/m0/s1",CAS_RN: 81093-37-0,54687,TUZYXOIXSAXUGO-PZAWKZKUSA-N,49398,DTXSID6023498,Negative,NA,NA,NA,NA,NA,NA,SM855853;EA285951|EA285952|EA285953|EA285954|EA285955|EA285956|EA285957|EA285958|EA285959|EA285960|EA285961|EA285962|EA285963|EA285964,[M-H]-;[M-H]-,HCD35;CID35|HCD15|HCD30|HCD45|HCD60|HCD75|HCD90|HCD15|HCD30|HCD45|HCD60|HCD75|HCD90|CID35,423.239:321.1707:303.1602;303.1598:321.1704:285.1493|423.239:321.1704:303.1606|101.0608:303.1595:321.1705|101.0607:59.0138:85.0299|101.0608:59.0141:85.0296|101.0607:59.014|101.0609:59.0137|423.2383:321.1707:303.1598|101.0607:303.16:321.1702|101.0606:59.0138:85.0292|101.0606:59.0138:85.0297|101.0607:59.0138|101.0606|303.1597:321.1701:285.1493,423.239;321.1704;303.1598;285.1493;101.0607;85.02965;59.0138,CASMI_2016;Eawag
stpQQR355,"Diazepam|7-chloro-1-methyl-5-phenyl-3H-1,4-benzodiazepin-2-one",CN1c2ccc(Cl)cc2C(=NCC1=O)c1ccccc1,284.07164,C16H13ClN2O,"InChI=1S/C16H13ClN2O/c1-19-14-8-7-12(17)9-13(14)16(18-10-15(19)20)11-5-3-2-4-6-11/h2-9H,10H2,1H3",CAS_RN: 439-14-5,3016,AAOVKJBEBIDNHE-UHFFFAOYSA-N,2908,DTXSID4020406,Positive,AU160802|AU160803|AU160804|AU160805;SM856001;EA262601|EA262602|EA262603|EA262604|EA262605|EA262606|EA262607|EA262608|EA262609|EA262610|EA262611|EA262612|EA262613|EA262614;UF408401|UF408402|UF408403|UF408404,[M+H]+;[M+H]+;[M+H]+;[M+H]+,CID20|CID30|CID40|CID50;HCD35;CID35|HCD15|HCD30|HCD45|HCD60|HCD75|HCD90|HCD15|HCD30|HCD45|HCD60|HCD75|HCD90|CID35;HCD55|HCD80|CID35|CID55,285.0793:287.0763:286.0819|285.0793:154.0408:193.0879|193.0884:154.0413:222.115|193.0881:154.0409:241.0525;285.0788:154.0417:193.0885;257.0842:154.0419:222.1152|285.0791|285.079:257.0843:154.0417|285.079:257.0839:154.0417|154.0418:193.0886:222.1152|193.0888:154.0419:222.1153|193.0885:154.0417:241.0527|285.079|285.079:257.084:182.0365|285.0791:257.0839:154.0418|154.0418:193.0886:222.1151|193.0887:154.0418:222.1151|193.0886:154.0418:241.0526|257.0842:154.0419:222.1152;285.0794:154.0421:257.0843|193.0889:154.042:241.0531|285.0795:257.0845:154.0421|257.0843:154.042:222.1154,257.0842;241.05265;222.1152;193.0886;182.0365;154.0418,Athens_Univ;CASMI_2016;Eawag;UFZ,NA,NA,NA,NA,NA,NA
stpQQR356,Ketoprofen|2-(3-benzoylphenyl)propanoic acid,CC(C(O)=O)c1cccc(c1)C(=O)c1ccccc1,254.09429,C16H14O3,"InChI=1S/C16H14O3/c1-11(16(18)19)13-8-5-9-14(10-13)15(17)12-6-3-2-4-7-12/h2-11H,1H3,(H,18,19)",CAS_RN: 56105-81-8,3825,DKYWVDODHFEZIM-UHFFFAOYSA-N,3693,DTXSID6020771,Positive/Negative,AU115001|AU115002|AU115003;SM856202;EA020501|EA020502|EA020503|EA020504|EA020505|EA020506|EA020507|EA020508|EA020509|EA020510|EA020511|EA020512|EA020513|EA020514;UF408601|UF408602|UF408603|UF408604,[M+H]+;[M+H]+;[M+H]+;[M+H]+,CID10|CID20|CID30;HCD35;CID35|HCD15|HCD30|HCD45|HCD60|HCD75|HCD90|HCD15|HCD30|HCD45|HCD60|HCD75|HCD90|CID35;HCD55|HCD80|CID35|CID55,255.0978:209.093:256.1003|209.0927:210.0959:177.0526|209.0923:177.0518:194.0688;209.0959:105.0334:255.1013;209.0962:105.0333:177.0546|255.1017:209.0961:105.0333|209.0962:105.0335:255.1016|105.0335:209.096:177.0547|105.0336:177.055:209.0961|105.0335:77.0386:103.0542|105.0334:77.0386:103.0542|255.1016:209.0961:105.0333|209.0962:105.0335:255.1015|105.0335:209.0962:177.0547|105.0335:177.0546:209.0961|105.0335:77.0386:103.0542|105.0335:77.0386:103.0542|209.0961:105.0335:177.0545;105.0335:209.0963:177.0548|105.0335:77.0386:103.0543|209.096:105.0334:177.0547|209.096:105.0335:177.0548,210.0959;209.0961;194.0688;177.0547;105.0335;103.0542;77.0386,Athens_Univ;CASMI_2016;Eawag;UFZ,SM856255;EA020551|EA020552|EA020553|EA020558|EA020559|EA020564;UF408653|UF408654,[M-H]-;[M-H]-;[M-H]-,HCD35;CID35|HCD15|HCD30|HCD15|HCD30|CID35;CID35|CID55,197.0608:209.0974:253.0872;209.0974:197.0611:185.0609|197.061:241.0869:185.0609|197.0611|197.0609:241.0866:185.061|197.0607|209.0974:197.061:185.0608;209.0966|209.0971,253.0872;241.08675;209.0974;197.061;185.0609,CASMI_2016;Eawag;UFZ
stpQQR357,"Sulfamethoxazole|4-amino-N-(5-methyl-1,2-oxazol-3-yl)benzenesulfonamide",Cc1cc(NS(=O)(=O)c2ccc(N)cc2)no1,253.05211,C10H11N3O3S,"InChI=1S/C10H11N3O3S/c1-7-6-10(12-16-7)13-17(14,15)9-4-2-8(11)3-5-9/h2-6H,11H2,1H3,(H,12,13)",CAS_RN: 723-46-6,5329,JLKIGFTWXXRPMT-UHFFFAOYSA-N,5138,DTXSID8026064,Positive/Negative,AU101801|AU101802|AU101803|AU101804|AU101805|AU101806;SM856302;EA029801|EA029802|EA029803|EA029804|EA029805|EA029806|EA029807|EA029808|EA029809|EA029810|EA029811|EA029812|EA029813|EA029814;TUE00671|TUE00672|TUE00673,[M+H]+;[M+H]+;[M+H]+;[M+H]+,CID19.9-29.9|CID20|CID30|CID40|CID50|CID10;HCD35;CID35|HCD15|HCD30|HCD45|HCD60|HCD75|HCD90|HCD15|HCD30|HCD45|HCD60|HCD75|HCD90|CID35;NA10.0V|NA20.0V|NA40.0V,156.0119:108.046:254.0603|156.0101:254.0589:160.0855|156.0103:160.0858:147.078|156.011:146.0707:147.0778|146.0703:147.0773:119.0605|254.0592:156.0099:190.0964;254.0593:156.0113:108.0444;156.0115:188.082:147.0791|254.0597:156.0112:190.0978|254.0593:156.0114:108.0444|156.0115:108.0444:92.0495|108.0444:92.0495:156.0114|108.0444:92.0495:65.0386|92.0495:108.0444:65.0386|254.0596:156.0113:188.0821|254.0595:156.0114:108.0444|156.0114:108.0444:92.0495|108.0444:92.0495:156.0114|108.0444:92.0495:65.0386|92.0495:108.0444:65.0386|156.0114:188.0819:147.0791;254.0595:156.0113:188.0817|92.0494:108.0444:156.0112|92.0495:65.0387:108.0443,190.0971;188.08195;160.08565;156.01135;147.078;146.0705;119.0605;108.0444;92.0495;65.0386,Athens_Univ;CASMI_2016;Eawag;Env_Anal_Chem_U_Tuebingen,AU101851|AU101852|AU101853;EA029851|EA029852|EA029853|EA029854|EA029855|EA029856|EA029858|EA029859|EA029860|EA029861|EA029864;TUE00675|TUE00676|TUE00677,[M-H]-;[M-H]-;[M-H]-,CID10|CID20|CID30;CID35|HCD15|HCD30|HCD45|HCD60|HCD75|HCD15|HCD30|HCD45|HCD60|CID35;NA10.0V|NA20.0V|NA40.0V,156.0178:252.0506|156.0167|156.0161;156.0127:92.0505|252.0447:156.0125|156.0127:252.0454|156.0126:63.9625|156.0128:63.9625:92.0506|63.9625:92.0505:156.0121|252.0447:156.0122|156.0124|156.0126|156.0125:63.9623|156.0124;156.0124:252.0446:63.9623|156.0125:63.9622:92.0506|63.9623:92.0505:156.0123,252.0447;156.0125;92.0505;63.9623,Athens_Univ;Eawag;Env_Anal_Chem_U_Tuebingen
stpQQR358,2-(2-(Chlorophenyl)amino)benzaldehyde|2-(2-chloroanilino)benzaldehyde,ClC1=CC=CC=C1NC1=CC=CC=C1C=O,231.04509,C13H10ClNO,"InChI=1S/C13H10ClNO/c14-11-6-2-4-8-13(11)15-12-7-3-1-5-10(12)9-16/h1-9,15H",CAS_RN: 71758-44-6,53423421,DAAHPDZFLSFYPJ-UHFFFAOYSA-N,26001359,DTXSID20698322,Positive,SM856602;UF409001|UF409002|UF409003|UF409004,[M+H]+;[M+H]+,HCD35;HCD55|HCD80|CID35|CID55,214.0417:232.0523:180.0807;214.042:180.081:196.0759|214.0419:178.0653:180.0809|214.042|214.042,214.042;196.0759;180.0809;178.0653,CASMI_2016;UFZ,NA,NA,NA,NA,NA,NA
stpQQR359,Flutamide|2-methyl-N-[4-nitro-3-(trifluoromethyl)phenyl]propanamide,CC(C)C(=O)Nc1ccc(c(c1)C(F)(F)F)[N+]([O-])=O,276.07218,C11H11F3N2O3,"InChI=1S/C11H11F3N2O3/c1-6(2)10(17)15-7-3-4-9(16(18)19)8(5-7)11(12,13)14/h3-6H,1-2H3,(H,15,17)",CAS_RN: 37209-54-4,3397,MKXKFYHWDHIYRV-UHFFFAOYSA-N,3280,DTXSID7032004,Negative,NA,NA,NA,NA,NA,NA,SM856754,[M-H]-,HCD35,275.065:202.0121:205.023,275.065;205.023;202.0121,CASMI_2016
stpQQR360,"Diclofenac|2-[2-(2,6-dichloroanilino)phenyl]acetic acid",OC(=O)Cc1ccccc1Nc1c(Cl)cccc1Cl,295.01668,C14H11Cl2NO2,"InChI=1S/C14H11Cl2NO2/c15-10-5-3-6-11(16)14(10)17-12-7-2-1-4-9(12)8-13(18)19/h1-7,17H,8H2,(H,18,19)",CAS_RN: 79183-19-0,3033,DCOPUUMXTXDBNB-UHFFFAOYSA-N,2925,DTXSID6022923,Positive/Negative,AU114701|AU114702|AU114703|AU114704|AU114705;SM856902;EA020101|EA020102|EA020103|EA020104|EA020105|EA020106|EA020107|EA020108|EA020109|EA020110|EA020111|EA020112|EA020113|EA020114;UF409301|UF409302|UF409303|UF409304,[M+H]+;[M+H]+;[M+H]+;[M+H]+,CID10|CID20|CID30|CID40|CID50;HCD35;CID35|HCD15|HCD30|HCD45|HCD60|HCD75|HCD90|HCD15|HCD30|HCD45|HCD60|HCD75|HCD90|CID35;HCD55|HCD80|CID35|CID55,250.0152:296.019:278.0098|215.0481:250.0151:214.0338|215.0462:217.0431:216.0434|214.0339:216.0322:215.0379|214.0338:216.0315:215.0415;215.0495:214.0417:250.0185;278.0136:250.0183:215.049|296.024:278.0135:250.0185|215.0496:250.0183:214.0417|215.0498:214.0419:250.0183|214.042:215.0496:180.0805|214.0419:180.0807:215.0493|214.0419:179.0729:178.0649|296.0239:278.0132:250.0184|215.0498:250.0184:214.0417|215.0497:214.0418:250.0185|214.0418:215.0494:180.0807|214.0418:180.0806:215.0498|214.0418:178.065:179.0728|278.0135:250.0182:215.0493;214.042:215.0497:180.081|214.042:180.0809:215.0499|278.0138:250.0188:215.0499|278.0138:250.0188:215.0499,278.0135;250.0184;217.0431;216.0434;216.03185;215.0496;214.0418;180.0807;179.07285;178.06495,Athens_Univ;CASMI_2016;Eawag;UFZ,SM856951;EA020151|EA020152|EA020153|EA020154|EA020155|EA020156|EA020158|EA020159|EA020160|EA020161|EA020162|EA020163|EA020164;UF409351|UF409352|UF409353|UF409354,[M-H]-;[M-H]-;[M-H]-,HCD35;CID35|HCD15|HCD30|HCD45|HCD60|HCD75|HCD15|HCD30|HCD45|HCD60|HCD75|HCD90|CID35;HCD55|HCD80|CID35|CID55,250.0196:214.0429:294.0095;250.0198|250.0198:294.0094|250.0197:214.043|250.0198:214.0429:178.0669|214.043:178.0667|178.0666|250.0197:294.0092|250.0197:214.0429|250.0197:214.0431:178.0658|214.043:250.0192:178.0659|178.0661|178.0658:250.02|250.0198;250.0194:197.9606|197.96:250.0195|250.0195|250.0195,294.0094;250.0197;214.043;197.9603;178.0661,CASMI_2016;Eawag;UFZ
stpQQR361,"Mefenamic acid|2-(2,3-dimethylanilino)benzoic acid",Cc1cccc(Nc2ccccc2C(O)=O)c1C,241.11028,C15H15NO2,"InChI=1S/C15H15NO2/c1-10-6-5-9-13(11(10)2)16-14-8-4-3-7-12(14)15(17)18/h3-9,16H,1-2H3,(H,17,18)",CAS_RN: 61-68-7,4044,HYYBABOKPJLUIN-UHFFFAOYSA-N,3904,DTXSID5023243,Positive/Negative,AU115101|AU115102|AU115103|AU115104|AU115105;SM857001;EA020801|EA020802|EA020803|EA020804|EA020805|EA020806|EA020807|EA020808|EA020809|EA020810|EA020811|EA020812|EA020813|EA020814;UF409401|UF409402|UF409403|UF409404,[M+H]+;[M+H]+;[M+H]+;[M+H]+,CID10|CID20|CID30|CID40|CID50;HCD35;CID35|HCD15|HCD30|HCD45|HCD60|HCD75|HCD90|HCD15|HCD30|HCD45|HCD60|HCD75|HCD90|CID35;HCD55|HCD80|CID35|CID55,224.105:242.1159:241.108|224.1032:225.1082:223.095|224.1032:209.0789:225.1022|209.0799:208.0663:180.0734|180.0777:208.073:209.0751;224.107:209.0836:242.1176;224.1071:223.0993|242.1177:224.1071:241.1096|224.1071:242.1174:223.1|224.107:209.0835:223.0999|224.1071:209.0835:208.0757|209.0836:224.1068:208.0757|209.0834:180.0807:208.0757|242.1176:224.107:241.1097|224.1071:242.1175:223.0993|224.1071:209.0835:223.0993|224.1071:209.0836:208.0756|209.0835:224.107:208.0756|209.0836:180.0809:208.0758|224.1071:223.0993;224.1071:209.0839:222.0918|209.0837:224.1072:180.081|224.107|224.1069,241.1096;225.1052;224.10705;223.0993;222.0918;209.0835;208.07565;180.0807,Athens_Univ;CASMI_2016;Eawag;UFZ,SM857053;EA020851|EA020852|EA020853|EA020854|EA020855|EA020856|EA020857|EA020858|EA020859|EA020860|EA020861|EA020862|EA020863|EA020864;UF409451|UF409452|UF409453|UF409454,[M-H]-;[M-H]-;[M-H]-,HCD35;CID35|HCD15|HCD30|HCD45|HCD60|HCD75|HCD90|HCD15|HCD30|HCD45|HCD60|HCD75|HCD90|CID35;HCD55|HCD80|CID35|CID55,196.1131:240.1029:192.0818;196.1136:180.0817|240.1031:196.1136|196.1133:240.1029|196.1133:240.1029:180.0822|196.1133:192.082:180.082|196.1128:192.0821:180.0819|180.0817:192.0816:92.0505|240.1031:196.1131|196.1134:240.103|196.1133:240.103:180.0817|196.1132:180.0817:192.0822|196.113:180.0819:192.0815|194.0978:180.0816:196.1128|196.1136:240.103;240.1029:196.1133|196.1132:240.1028|196.1132|196.1131,240.10295;196.11325;194.0978;192.0819;180.0817;92.0505,CASMI_2016;Eawag;UFZ
stpQQR362,"Ketoconazole|1-[4-[4-[[(2S,4R)-2-(2,4-dichlorophenyl)-2-(imidazol-1-ylmethyl)-1,3-dioxolan-4-yl]methoxy]phenyl]piperazin-1-yl]ethanone",CC(=O)N1CCN(CC1)c1ccc(OC[C@@H]2CO[C@](Cn3ccnc3)(O2)c2ccc(Cl)cc2Cl)cc1,530.14876,C26H28Cl2N4O4,"InChI=1S/C26H28Cl2N4O4/c1-19(33)31-10-12-32(13-11-31)21-3-5-22(6-4-21)34-15-23-16-35-26(36-23,17-30-9-8-29-18-30)24-7-2-20(27)14-25(24)28/h2-9,14,18,23H,10-13,15-17H2,1H3/t23-,26-/m1/s1",CAS_RN: 72093-26-6,47576,XMAYWYJOQHXEEK-ZEQKJWHPSA-N,43284,DTXSID60161949,Positive,SM857403,[M+H]+,HCD35,531.1563:82.0525:489.1457,489.1457;82.0525,CASMI_2016,NA,NA,NA,NA,NA,NA
stpQQR363,Mycophenolic acid|(E)-6-(4-hydroxy-6-methoxy-7-methyl-3-oxo-1H-2-benzofuran-5-yl)-4-methylhex-4-enoic acid,COc1c(C)c2COC(=O)c2c(O)c1C\C=C(/C)CCC(O)=O,320.12599,C17H20O6,"InChI=1S/C17H20O6/c1-9(5-7-13(18)19)4-6-11-15(20)14-12(8-23-17(14)21)10(2)16(11)22-3/h4,20H,5-8H2,1-3H3,(H,18,19)/b9-4+",CAS_RN: 483-60-3,446541,HPNSFSBZBAHARI-RUDMXATFSA-N,393865,DTXSID4041070,Positive/Negative,SM857701;EA280801|EA280802|EA280803|EA280804|EA280805|EA280806|EA280807|EA280808|EA280809|EA280810|EA280811|EA280812|EA280813|EA280814;UF412801|UF412802|UF412803|UF412804,[M+H]+;[M+H]+;[M+H]+,HCD35;CID35|HCD15|HCD30|HCD45|HCD60|HCD75|HCD90|HCD15|HCD30|HCD45|HCD60|HCD75|HCD90|CID35;HCD55|HCD80|CID35|CID55,207.0652:321.1333:303.1227;303.1228:321.1335|303.1227:321.1332:207.0649|207.0652:303.1228:275.1278|207.0651:159.0439:195.0652|207.0652:159.0439:177.0545|159.0439:207.0652:91.0542|159.044:103.0543:91.0542|303.1227:321.1333:207.0652|207.0653:303.1228:275.1279|207.0652:159.0441:195.0652|207.0653:159.0441:177.0548|159.0441:207.0653:91.0542|159.044:103.0543:91.0542|303.1227:321.1333:275.127;199.076|199.0745|203.0602:265.0094:234.9991|203.0602:265.0093:234.9992,303.1227;275.1278;265.00935;234.99915;207.0652;203.0602;199.07525;195.0652;177.05465;159.044;103.0543;91.0542,CASMI_2016;Eawag;UFZ,SM857754;EA280851|EA280852|EA280853|EA280854|EA280855|EA280856|EA280857|EA280858|EA280859|EA280860|EA280861|EA280862|EA280863|EA280864;UF412851|UF412852|UF412853|UF412854,[M-H]-;[M-H]-;[M-H]-,HCD35;CID35|HCD15|HCD30|HCD45|HCD60|HCD75|HCD90|HCD15|HCD30|HCD45|HCD60|HCD75|HCD90|CID35;HCD55|HCD80|CID35|CID55,319.1187:191.035:275.1291;287.0923:179.0349:275.1287|319.1186:275.1287|319.1187:275.1289:287.0924|191.035:205.0506:319.1191|191.0348:205.0509:203.0349|191.0352:173.0607:203.0354|173.0606:191.0354:161.0604|319.1186:275.1286|319.1183:275.1286:287.0918|191.0348:192.0427:205.0506|191.0349:205.0505:245.0821|191.0347:203.035:173.0605|191.0349:173.0605:158.0368|287.0924:179.0349:275.1287;319.1191|319.119|287.0925:179.0351:191.035|287.0925:179.035:191.035,319.1187;287.0924;275.1287;245.0821;205.0506;203.035;192.0427;191.035;179.03495;173.06055;161.0604;158.0368,CASMI_2016;Eawag;UFZ
stpQQR364,Crotamiton|(E)-N-ethyl-N-(2-methylphenyl)but-2-enamide,CCN(C(=O)\C=C\C)c1ccccc1C,203.13101,C13H17NO,"InChI=1S/C13H17NO/c1-4-8-13(15)14(5-2)12-10-7-6-9-11(12)3/h4,6-10H,5H2,1-3H3/b8-4+",CAS_RN: 483-63-6,688020,DNTGGZPQPQTDQF-XBXARRHUSA-N,599515,NA,Positive,SM858002,[M+H]+,HCD35,204.1383:69.0336:136.112,136.112;69.0336,CASMI_2016,NA,NA,NA,NA,NA,NA
stpQQR365,"10,11-Dihydro-10,11-dihydroxycarbamazepine|Dihydroxycarbazepine|5,6-dihydroxy-5,6-dihydrobenzo[b][1]benzazepine-11-carboxamide",NC(=O)N1c2ccccc2C(O)C(O)c2ccccc12,270.10044,C15H14N2O3,"InChI=1S/C15H14N2O3/c16-15(20)17-11-7-3-1-5-9(11)13(18)14(19)10-6-2-4-8-12(10)17/h1-8,13-14,18-19H,(H2,16,20)",CAS_RN: 6064-68-2,83852,PRGQOPPDPVELEG-UHFFFAOYSA-N,75667,NA,Positive,SM858102;UF410901|UF410902|UF410903|UF410904,[M+H]+;[M+H]+,HCD35;HCD55|HCD80|CID35|CID55,180.0808:210.0913:254.0812;180.0809:182.0966:210.0916|180.0809:182.0966:210.0912|253.0973:236.0707:210.0916|253.0974:236.0709:210.0919,254.0812;253.09735;236.0708;210.0916;182.0966;180.0809,CASMI_2016;UFZ,NA,NA,NA,NA,NA,NA
stpQQR366,Cetirizine|2-[2-[4-[(4-chlorophenyl)-phenylmethyl]piperazin-1-yl]ethoxy]acetic acid,OC(=O)COCCN1CCN(CC1)C(c1ccccc1)c1ccc(Cl)cc1,388.15537,C21H25ClN2O3,"InChI=1S/C21H25ClN2O3/c22-19-8-6-18(7-9-19)21(17-4-2-1-3-5-17)24-12-10-23(11-13-24)14-15-27-16-20(25)26/h1-9,21H,10-16H2,(H,25,26)",CAS_RN: 83881-51-0,2678,ZKLPARSLTMPFCP-UHFFFAOYSA-N,2577,DTXSID4022787,Positive/Negative,SM858203;EA277201|EA277202|EA277203|EA277204|EA277205|EA277206|EA277207|EA277208|EA277209|EA277210|EA277211|EA277212|EA277213|EA277214;UF411001|UF411002|UF411003|UF411004,[M+H]+;[M+H]+;[M+H]+,HCD35;CID35|HCD15|HCD30|HCD45|HCD60|HCD75|HCD90|HCD15|HCD30|HCD45|HCD60|HCD75|HCD90|CID35;HCD55|HCD80|CID35|CID55,201.0465:166.0777:389.1626;201.0466:187.1076:166.0773|389.1621:201.0463:187.1074|201.0463:187.1073:165.0684|201.0463:166.0772:165.0703|201.0462:166.0774:165.0697|166.0774:165.0696:201.046|165.0697:166.0775:199.0303|389.1619:201.0462:187.1075|201.0463:187.1076:166.0772|201.0463:166.0775:165.0695|201.0463:166.0775:165.0697|166.0774:165.0696:201.0461|165.0697:166.0775:201.0465|201.0464:187.1075:166.0775;201.0466:166.0778:165.07|166.0778:165.0701:201.0468|201.0467:166.0779:187.1079|201.0466:166.0779:187.108,201.0463;199.0303;187.10755;166.0775;165.0697,CASMI_2016;Eawag;UFZ,SM858253;EA277251|EA277252|EA277253|EA277254|EA277258|EA277259|EA277260|EA277264;UF411051|UF411052|UF411053|UF411054,[M-H]-;[M-H]-;[M-H]-,HCD35;CID35|HCD15|HCD30|HCD45|HCD15|HCD30|HCD45|CID35;HCD55|HCD80|CID35|CID55,387.1483:101.0232:185.0933;185.0934:199.0318|387.1483|387.1483:75.0089|75.0085:387.1481|387.1479|387.1479|387.1469|199.0311:185.0934;387.1476|387.1483|341.0685|341.0682,387.1481;341.06835;199.03145;185.0934;101.0232;75.0087,CASMI_2016;Eawag;UFZ
stpQQR367,2-Hydroxycarbamazepine|Oxcarbazepine|5-oxo-6H-benzo[b][1]benzazepine-11-carboxamide,NC(=O)N1c2ccccc2CC(=O)c2ccccc12,252.08988,C15H12N2O2,"InChI=1S/C15H12N2O2/c16-15(19)17-12-7-3-1-5-10(12)9-14(18)11-6-2-4-8-13(11)17/h1-8H,9H2,(H2,16,19)",CAS_RN: 28721-07-5,34312,CTRLABGOLIVAIY-UHFFFAOYSA-N,31608,DTXSID0045703,Negative,NA,NA,NA,NA,NA,NA,SM858353,[M-H]-,HCD35,208.0768:251.0827:207.069,251.0827;208.0768;207.069,CASMI_2016
stpQQR368,"Finasteride|(1S,3aS,3bS,5aR,9aR,9bS,11aS)-N-tert-butyl-9a,11a-dimethyl-7-oxo-1,2,3,3a,3b,4,5,5a,6,9b,10,11-dodecahydroindeno[5,4-f]quinoline-1-carboxamide",C[C@]12CC[C@H]3[C@H]([C@@H]1CC[C@@H]2/C(=N/C(C)(C)C)/O)CC[C@@H]4[C@@]3(C=CC(=N4)O)C,372.27768,C23H36N2O2,"InChI=1S/C23H36N2O2/c1-21(2,3)25-20(27)17-8-7-15-14-6-9-18-23(5,13-11-19(26)24-18)16(14)10-12-22(15,17)4/h11,13-18H,6-10,12H2,1-5H3,(H,24,26)(H,25,27)/t14-,15-,16-,17+,18+,22-,23+/m0/s1",CAS_RN: 98319-26-7,57363,DBEPLOCGEIEOCV-WSBQPABSSA-N,51714,DTXSID3020625,Positive,SM858801;UF411501|UF411502|UF411503|UF411504,[M+H]+;[M+H]+,HCD35;HCD55|HCD80|CID35|CID55,167.0855:165.0699:152.062;373.2855:305.2594:306.2628|95.0855:93.0699:81.0699|305.2593:373.2855:355.2752|305.2591:355.2749:306.2627,355.27505;306.26275;305.2593;167.0855;165.0699;152.062;95.0855;93.0699;81.0699,CASMI_2016;UFZ,NA,NA,NA,NA,NA,NA