NORMAN_ID,NAME,SMILES,NEUTRAL_EXACT_MASS,FORMULA,StdInChI,CAS_RN,PUBCHEM_CID,InChIKey,CHEMSPIDER_ID,DTXSID,Preferable Ionization,MB_Records Positive Ionization,Adduct Positive Ionization,Ionisation type and collision energy Positive Ionization,Fragments Positive Ionization,Simplified_fragments_Positive,Institute Positive Ionization,MB_Records Negative Ionization,Adduct Negative Ionization,Ionisation type and collision energy Negative Ionization,Fragments Negative Ionization,Simplified_fragments_Negative,Institute Negative Ionization
stpQQR615,SPI_328.2485_15.0,NA,327.241,C18H33NO4,NA,CAS_RN: NA,NA,NA,NA,NA,Positive,ET180601|ET180602|ET180603|ET180604|ET180605|ET180606,[M+H]+,HCD15|HCD30|HCD45|HCD60|HCD75|HCD90,328.2483:174.1125:60.0806|174.1125:328.2483:130.0863|174.1125:130.0863:88.0757|130.0863:174.1125:88.0757|88.0757:130.0863:58.0651|88.0757:130.0863:58.0652,174.1125;130.0863;88.0757;60.0806;58.06515,Eawag_Additional_Specs,NA,NA,NA,NA,NA,NA
stpQQR616,SPI_314.2691_12.0,NA,313.2617,C18H35NO3,NA,CAS_RN: NA,NA,NA,NA,NA,Positive,ET180801|ET180802|ET180803|ET180804|ET180805|ET180806,[M+H]+,HCD15|HCD30|HCD45|HCD60|HCD75|HCD90,314.2691:144.1383:296.2584|144.1384:314.269:296.2586|144.1384:100.1121:72.0808|100.1121:144.1384:72.0808|100.1121:72.0808:144.1384|100.1121:72.0808:58.0652,296.2585;144.1384;100.1121;72.0808;58.0652,Eawag_Additional_Specs,NA,NA,NA,NA,NA,NA
stpQQR617,SPI_270.2429_14.9|N-deethylspiroxamine,CCCNCC1COC2(CCC(CC2)C(C)(C)C)O1,269.2355,C16H31NO2,"InChI=1S/C16H31NO2/c1-5-10-17-11-14-12-18-16(19-14)8-6-13(7-9-16)15(2,3)4/h13-14,17H,5-12H2,1-4H3",CAS_RN: NA,NA,YYICKHZBDGQJBW-UHFFFAOYSA-N,NA,NA,Positive,ET181001|ET181002|ET181003|ET181004|ET181005|ET181006,[M+H]+,HCD15|HCD30|HCD45|HCD60|HCD75|HCD90,270.2428:116.107:72.081|116.107:270.2428:72.0808|116.107:72.0808:98.0964|116.107:72.0808:56.0495|72.0808:116.107:56.0495|72.0808:116.1069:56.0495,116.107;98.0964;72.0808;56.0495,Eawag_Additional_Specs,NA,NA,NA,NA,NA,NA
stpQQR618,SPI_256.2273_14.6|N-depropylspiroxamine,CCNCC1COC2(CCC(CC2)C(C)(C)C)O1,255.2198,C15H29NO2,"InChI=1S/C15H29NO2/c1-5-16-10-13-11-17-15(18-13)8-6-12(7-9-15)14(2,3)4/h12-13,16H,5-11H2,1-4H3",CAS_RN: NA,NA,AUYSPPNVFQBFHX-UHFFFAOYSA-N,NA,NA,Positive,ET181101|ET181102|ET181103|ET181104|ET181105|ET181106,[M+H]+,HCD15|HCD30|HCD45|HCD60|HCD75|HCD90,256.2271:102.0913:74.0963|102.0914:256.2277:58.0652|102.0914:58.0651:84.0807|102.0914:58.0652:84.0808|58.0652:102.0913:84.0808|58.0652:102.0914:84.0809,102.0914;84.0808;74.0963;58.0652,Eawag_Additional_Specs,NA,NA,NA,NA,NA,NA
stpQQR619,SPI_312.2535_12.1,NA,311.246,C18H33NO3,NA,CAS_RN: NA,NA,NA,NA,NA,Positive,ET181501|ET181502|ET181503|ET181504|ET181505|ET181506,[M+H]+,HCD15|HCD30|HCD45|HCD60|HCD75|HCD90,312.2533:144.1382|144.1383:312.2536:100.1122|144.1382:100.112:72.0808|100.112:144.1384:72.0807|100.1121:72.0808:58.0652|100.112:72.0808:58.0651,144.13825;100.112;72.0808;58.06515,Eawag_Additional_Specs,NA,NA,NA,NA,NA,NA
stpQQR620,SPI_300.2536_10.7,NA,299.246,C17H33NO3,NA,CAS_RN: NA,NA,NA,NA,NA,Positive,ET181601,[M+H]+,HCD35,121.0648:144.1385:100.1123,144.1385;121.0648;100.1123,Eawag_Additional_Specs,NA,NA,NA,NA,NA,NA
stpQQR621,VEN_278.2114_12.5|Venlafaxine|1-[2-(dimethylamino)-1-(4-methoxyphenyl)ethyl]cyclohexan-1-ol,COC1=CC=C(C=C1)C(CN(C)C)C1(O)CCCCC1,277.2042,C17H27NO2,"InChI=1S/C17H27NO2/c1-18(2)13-16(17(19)11-5-4-6-12-17)14-7-9-15(20-3)10-8-14/h7-10,16,19H,4-6,11-13H2,1-3H3",CAS_RN: 93413-46-8,5656,PNVNVHUZROJLTJ-UHFFFAOYSA-N,5454,DTXSID6023737,Positive,AU150201|AU150202|AU150203|AU150204|AU150205;SM832201;EA064501|EA064502|EA064503|EA064504|EA064505|EA064506|EA064507|EA064508|EA064509|EA064510|EA064511|EA064512|EA064513|EA064514;ET190001|ET190002|ET190003|ET190004|ET190005;TUE00811|TUE00812|TUE00813,[M+H]+;[M+H]+;[M+H]+;[M+H]+;[M+H]+,"CID10|CID20|CID30|CID40|CID50;HCD35;CID35|HCD15|HCD30|HCD45|HCD60|HCD75|HCD90|HCD15|HCD30|HCD45|HCD60|HCD75|HCD90|CID35;HCD15, 30, 45, 60, 70 or 90|HCD15, 30, 45, 60, 70 or 90|HCD15, 30, 45, 60, 70 or 90|HCD15, 30, 45, 60, 70 or 90|HCD15, 30, 45, 60, 70 or 90;NA10.0V|NA20.0V|NA40.0V",278.2126:260.2011:279.2154|260.2006:278.2126:215.1427|121.0639:147.0792:173.0949|121.0643:147.0797:173.0954|121.0643:159.0789:132.056;58.0653:278.2118:260.2013;260.2014:215.1432:121.0643|278.2118:260.2016:58.0651|58.0652:260.2012:278.212|58.0652:121.065:215.1432|58.0652:121.065:147.0807|58.0652:121.0649:147.0805|58.0652:121.065:91.0544|278.212:260.2011:58.0651|58.0652:260.2012:278.2121|58.0652:121.0649:215.1432|58.0652:121.0649:147.0806|58.0652:121.0649:147.0806|58.0652:121.0649:91.0543|260.2011:215.1431:121.0647;278.2119:260.2013:58.0656|58.0656:260.2014:215.1436|58.0656:121.065:147.0808|58.0656:121.065:147.0807|58.0656:121.065:91.0544;58.0653:278.212:260.2014|58.0652:121.0646:215.1431|58.0652:121.0646:91.0541,260.20125;215.1432;173.09515;159.0789;147.0806;132.056;121.0649;91.05435;58.0652,Athens_Univ;CASMI_2016;Eawag;Eawag_Additional_Specs;Env_Anal_Chem_U_Tuebingen,NA,NA,NA,NA,NA,NA
stpQQR622,VEN_264.1959_10.8|O-Desmethylvenlafaxine|4-[2-(dimethylamino)-1-(1-hydroxycyclohexyl)ethyl]phenol,CN(C)CC(C1=CC=C(O)C=C1)C1(O)CCCCC1,263.1885,C16H25NO2,"InChI=1S/C16H25NO2/c1-17(2)12-15(13-6-8-14(18)9-7-13)16(19)10-4-3-5-11-16/h6-9,15,18-19H,3-5,10-12H2,1-2H3",CAS_RN: 93413-62-8,125017,KYYIDSXMWOZKMP-UHFFFAOYSA-N,111300,DTXSID40869118,Positive/Negative,AU202101|AU202102|AU202103|AU202104|AU202105;EA105301|EA105302|EA105303|EA105304|EA105305|EA105306|EA105307|EA105308|EA105309|EA105310|EA105311|EA105312|EA105313|EA105314;ET190101|ET190102|ET190103|ET190104|ET190105;TUE00821|TUE00822|TUE00823,[M+H]+;[M+H]+;[M+H]+;[M+H]+,"CID10|CID20|CID30|CID40|CID50;CID35|HCD15|HCD30|HCD45|HCD60|HCD75|HCD90|HCD15|HCD30|HCD45|HCD60|HCD75|HCD90|CID35;HCD15, 30, 45, 60, 70 or 90|HCD15, 30, 45, 60, 70 or 90|HCD15, 30, 45, 60, 70 or 90|HCD15, 30, 45, 60, 70 or 90|HCD15, 30, 45, 60, 70 or 90;NA10.0V|NA20.0V|NA40.0V",264.196:246.1851:265.1992|246.1848:201.1266:264.1955|133.064:159.0794:145.0637|133.064:159.0795:145.0637|133.0639:145.0635:144.056;246.1856:107.0487:201.1274|264.1962:246.1859:58.065|246.1852:58.0652:264.1957|58.0652:107.0492:201.1275|58.0651:107.0492:133.0648|58.0652:107.0493:133.0649|58.0651:107.0492:133.0648|264.196:246.1852:58.0651|246.1853:264.196:58.0651|58.0652:107.0492:133.0648|58.0652:107.0492:133.0649|58.0652:107.0492:133.0648|58.0651:107.0492:133.0648|246.1855:201.1273:107.0483;58.0655:107.0491:133.0647|58.0655:107.0491:133.0647|58.0655:107.0491:105.0699|264.1956:246.1852:58.0654|58.0655:246.1852:264.1957;58.0653:264.1962:246.1856|58.0652:107.0491:133.0645|58.0653:107.0491:133.0646,246.1852;201.12735;159.07945;145.0637;144.056;133.06475;107.0492;105.0699;58.0652,Athens_Univ;Eawag;Eawag_Additional_Specs;Env_Anal_Chem_U_Tuebingen,TUE00825|TUE00826|TUE00827,[M-H]-,NA10.0V|NA20.0V|NA40.0V,262.1814:186.1048:119.05|262.1812:186.1048:119.0501|119.0501:185.0971:186.1049,262.1813;186.1048;185.0971;119.0501,Env_Anal_Chem_U_Tuebingen
stpQQR623,"VEN_294.2063_13.1|Venlafaxine N-Oxide|2-(1-hydroxycyclohexyl)-2-(4-methoxyphenyl)-N,N-dimethylethanamine oxide",COC1=CC=C(C=C1)C(C[N+](C)(C)[O-])C1(O)CCCCC1,293.1991,C17H27NO3,"InChI=1S/C17H27NO3/c1-18(2,20)13-16(17(19)11-5-4-6-12-17)14-7-9-15(21-3)10-8-14/h7-10,16,19H,4-6,11-13H2,1-3H3",CAS_RN: NA,76559643,LASJEFFANGIOGZ-UHFFFAOYSA-N,NA,NA,Positive,AU212101|AU212102|AU212103|AU212104|AU212105;EQ339601|EQ339602|EQ339603|EQ339604|EQ339605|EQ339606|EQ339607|EQ339608|EQ339609;ET190201|ET190202|ET190203|ET190204|ET190205,[M+H]+;[M+H]+;[M+H]+,"CID10|CID20|CID30|CID40|CID50;HCD15|HCD30|HCD45|HCD60|HCD75|HCD90|HCD120|HCD150|HCD180;HCD15, 30, 45, 60, 70 or 90|HCD15, 30, 45, 60, 70 or 90|HCD15, 30, 45, 60, 70 or 90|HCD15, 30, 45, 60, 70 or 90|HCD15, 30, 45, 60, 70 or 90",294.2066:295.2101:223.1532|121.0643:294.2068:178.1221|121.0642:122.0676:178.1215|121.0641:122.0655:135.0794|121.064:122.0672:148.0744;294.2063:121.0647:233.1535|121.0647:294.2063:178.1226|121.0647:178.1226:135.0804|121.0647:81.0698:135.0803|121.0647:91.0542:81.0698|121.0647:91.0542:95.0491|78.0463:121.0647:91.0542|78.0463:91.0542:95.0491|78.0463:95.0491:50.0151;294.2069:121.0649:233.1542|121.065:294.207:178.1231|121.065:178.1231:135.0807|121.065:81.0701:135.0807|121.065:91.0544:95.0493,233.15385;223.1532;178.1226;148.0744;135.0804;122.0672;121.0647;95.0491;91.0542;81.0698;78.0463;50.0151,Athens_Univ;Eawag;Eawag_Additional_Specs,NA,NA,NA,NA,NA,NA
stpQQR624,VEN_292.1908_8.8,NA,291.1834,C17H25NO3,NA,CAS_RN: NA,NA,NA,NA,NA,Positive,ET190401|ET190402|ET190403|ET190404|ET190405|ET190406,[M+H]+,HCD15|HCD30|HCD45|HCD60|HCD75|HCD90,292.1906:274.1801:58.0652|58.0652:171.0804:121.0647|58.0652:121.0648:171.0804|121.0648:58.0652:171.0805|121.0648:58.0652:171.0805|121.0648:58.0652:91.0542,274.1801;171.08045;121.0648;91.0542;58.0652,Eawag_Additional_Specs,NA,NA,NA,NA,NA,NA
stpQQR625,VEN_294.2065_8.3,NA,293.1991,C17H27NO3,NA,CAS_RN: NA,NA,NA,NA,NA,Positive,ET190501|ET190502|ET190503|ET190504|ET190505|ET190506,[M+H]+,HCD15|HCD30|HCD45|HCD60|HCD75|HCD90,276.1954:58.0652|58.0652:276.1947|58.0652:121.0645:171.0797|58.0652:121.0649:171.0811|58.0652:121.0654|58.0651:121.0647,276.19505;171.0804;121.0648;58.0652,Eawag_Additional_Specs,NA,NA,NA,NA,NA,NA
stpQQR626,VEN_294.2065_11.3,NA,293.1991,C17H27NO3,NA,CAS_RN: NA,NA,NA,NA,NA,Positive,ET190601|ET190602|ET190603|ET190604|ET190605|ET190606,[M+H]+,HCD15|HCD30|HCD45|HCD60|HCD75|HCD90,294.206:276.196:58.0651|58.0652:276.1957:294.2061|58.0652:137.0597|58.0652:137.0595:131.0494|58.0652:137.0594|58.0652:137.0594:131.0486,276.19585;137.05945;131.049;58.0652,Eawag_Additional_Specs,NA,NA,NA,NA,NA,NA
stpQQR627,VEN_274.1801_10.6,NA,273.1729,C17H23NO2,NA,CAS_RN: NA,NA,NA,NA,NA,Positive,ET190701|ET190702|ET190703|ET190704|ET190705|ET190706,[M+H]+,HCD15|HCD30|HCD45|HCD60|HCD75|HCD90,58.0652:229.1223:211.1116|58.0653:211.1119:229.1223|58.0652:121.0651:211.1108|58.0652:121.0649:179.0856|58.0652:121.0649:179.0861|58.0652:121.0649:55.0179,229.1223;211.1116;179.08585;121.0649;58.0652;55.0179,Eawag_Additional_Specs,NA,NA,NA,NA,NA,NA
stpQQR628,VEN_292.1908_9.6,NA,291.1834,C17H25NO3,NA,CAS_RN: NA,NA,NA,NA,NA,Positive,ET190801|ET190802|ET190803|ET190804|ET190805|ET190806,[M+H]+,HCD15|HCD30|HCD45|HCD60|HCD75|HCD90,292.1911:58.0653|58.0652:292.1893|58.0653|58.0652:121.0642|58.065:121.0646|58.0652:121.0644,121.0644;58.0652,Eawag_Additional_Specs,NA,NA,NA,NA,NA,NA
stpQQR629,"PRZ|Prochloraz|N-propyl-N-[2-(2,4,6-trichlorophenoxy)ethyl]imidazole-1-carboxamide",CCCN(CCOC1=C(Cl)C=C(Cl)C=C1Cl)C(=O)N1C=CN=C1,375.0308,C15H16Cl3N3O2,"InChI=1S/C15H16Cl3N3O2/c1-2-4-20(15(22)21-5-3-19-10-21)6-7-23-14-12(17)8-11(16)9-13(14)18/h3,5,8-10H,2,4,6-7H2,1H3",CAS_RN: 7789-20-0,NA,TVLSRXXIMLFWEO-UHFFFAOYSA-N,66316,DTXSID4024270,Positive,SM838902;EA009601|EA009602|EA009603|EA009604|EA009605|EA009606|EA009607|EA009608|EA009609|EA009610|EA009611|EA009612|EA009613|EA009614;ET200001|ET200002|ET200003|ET200004;UF405803|UF405804,[M+H]+;[M+H]+;[M+H]+;[M+H]+,HCD35;CID35|HCD15|HCD30|HCD45|HCD60|HCD75|HCD90|HCD15|HCD30|HCD45|HCD60|HCD75|HCD90|CID35;HCD20|HCD30|HCD40|HCD60;CID35|CID55,308.0008:70.0288:70.0652;308.0006:265.9532|308.0003:265.9539:376.0397|308.0003:70.0287:265.9533|70.0651:70.0287:222.9479|70.0288:70.0652:194.9163|70.0287:70.0651:166.9215|166.9215:70.0287:132.9605|308.0005:265.9534:376.0376|308.0003:70.0287:265.9535|70.0651:70.0287:222.9478|70.0287:70.0651:194.9164|70.0287:70.0651:166.9216|166.9216:70.0287:132.9606|308.0004:265.9533;308.0007:265.9538:70.0288|308.0007:70.0288:265.9538|70.0288:70.0652:194.9166|70.0288:70.0652:166.9217;282.0213:308.0004:180.1133|282.0212:308.0009:180.1132,308.0005;282.02125;265.95345;222.94785;194.9164;180.11325;166.9216;132.96055;70.0651;70.0287,CASMI_2016;Eawag;Eawag_Additional_Specs;UFZ,NA,NA,NA,NA,NA,NA
stpQQR630,"PRZ_M282|67747-01-7|N-[2-(2,4,6-trichlorophenoxy)ethyl]propan-1-amine",CCCNCCOC1=C(Cl)C=C(Cl)C=C1Cl,281.0141,C11H14Cl3NO,"InChI=1S/C11H14Cl3NO/c1-2-3-15-4-5-16-11-9(13)6-8(12)7-10(11)14/h6-7,15H,2-5H2,1H3",CAS_RN: 67747-01-7,NA,CLFQSOIBYICELN-UHFFFAOYSA-N,3067696,DTXSID90891606,Positive,ET200101|ET200102|ET200103|ET200104|ET200105,[M+H]+,HCD10|HCD20|HCD30|HCD50|HCD70,282.0212:86.0964:72.0807|282.0213:86.0964:72.0807|282.0212:86.0964:72.0807|86.0964:58.0651:72.0807|58.0651:86.0964:166.9216,166.9216;86.0964;72.0807;58.0651,Eawag_Additional_Specs,NA,NA,NA,NA,NA,NA
stpQQR631,"PRZ_M353|MolPort-035-395-264|N-[propyl-[2-(2,4,6-trichlorophenoxy)ethyl]carbamoyl]formamide",CCCN(CCOC1=C(Cl)C=C(Cl)C=C1Cl)C(=O)NC=O,352.0148,C13H15Cl3N2O3,"InChI=1S/C13H15Cl3N2O3/c1-2-3-18(13(20)17-8-19)4-5-21-12-10(15)6-9(14)7-11(12)16/h6-8H,2-5H2,1H3,(H,17,19,20)",CAS_RN: NA,NA,RHDVQZWCBQXOJW-UHFFFAOYSA-N,23255241,DTXSID50891607,Positive,ET200201|ET200202|ET200203|ET200204|ET200205,[M+H]+,HCD10|HCD20|HCD30|HCD50|HCD70,308.0005:353.022:265.9537|308.0005:265.9536:353.022|308.0005:70.0287:70.0651|70.0287:70.0651:194.9166|70.0287:70.0651:166.9216,308.0005;265.95365;194.9166;166.9216;70.0651;70.0287,Eawag_Additional_Specs,NA,NA,NA,NA,NA,NA
stpQQR632,PRZ_M323b,CC(=O)CN(CCOC1=C(Cl)C=C(Cl)C=C1Cl)C=O,322.9883,C12H12Cl3NO3,"InChI=1S/C12H12Cl3NO3/c1-8(18)6-16(7-17)2-3-19-12-10(14)4-9(13)5-11(12)15/h4-5,7H,2-3,6H2,1H3",CAS_RN: NA,NA,KOOVZZFZNASYFB-UHFFFAOYSA-N,NA,DTXSID10891608,Positive,ET200301|ET200302|ET200303|ET200304;ET200401|ET200402|ET200403|ET200404,[M+H]+;[M+H]+,HCD10|HCD30|HCD50|HCD70;HCD10|HCD30|HCD50|HCD70,323.9955:128.0706:280.0057|84.0808:128.0707:280.0058|70.0651:84.0808:56.0495|70.0651:56.0495:84.0808;323.9954:128.0706:100.0393|128.0706:100.0393:323.9955|100.0393:56.0495:128.0706|56.0495:100.0393:70.0651,280.00575;128.0706;100.0393;84.0808;70.0651;56.0495,Eawag_Additional_Specs;Eawag_Additional_Specs,NA,NA,NA,NA,NA,NA
stpQQR633,PRZ_M323a,CC(=O)CN(CCOC1=C(Cl)C=C(Cl)C=C1Cl)C=O,322.9883,C12H12Cl3NO3,"InChI=1S/C12H12Cl3NO3/c1-8(18)6-16(7-17)2-3-19-12-10(14)4-9(13)5-11(12)15/h4-5,7H,2-3,6H2,1H3",CAS_RN: NA,NA,KOOVZZFZNASYFB-UHFFFAOYSA-N,NA,DTXSID10891608,Positive,ET200301|ET200302|ET200303|ET200304;ET200401|ET200402|ET200403|ET200404,[M+H]+;[M+H]+,HCD10|HCD30|HCD50|HCD70;HCD10|HCD30|HCD50|HCD70,323.9955:128.0706:280.0057|84.0808:128.0707:280.0058|70.0651:84.0808:56.0495|70.0651:56.0495:84.0808;323.9954:128.0706:100.0393|128.0706:100.0393:323.9955|100.0393:56.0495:128.0706|56.0495:100.0393:70.0651,280.00575;128.0706;100.0393;84.0808;70.0651;56.0495,Eawag_Additional_Specs;Eawag_Additional_Specs,NA,NA,NA,NA,NA,NA
stpQQR634,PRZ_M392b,CCCN(CCOC1=C(Cl)C=C(Cl)C=C1Cl)C(=O)N1C=NC=C1O,391.0257,C15H16Cl3N3O3,"InChI=1S/C15H16Cl3N3O3/c1-2-3-20(15(23)21-9-19-8-13(21)22)4-5-24-14-11(17)6-10(16)7-12(14)18/h6-9,22H,2-5H2,1H3",CAS_RN: NA,NA,UYINZFVHZKRNQK-UHFFFAOYSA-N,NA,DTXSID70891609,Positive,ET200501|ET200502|ET200503|ET200504,[M+H]+,HCD20|HCD30|HCD40|HCD60,308.0005:149.0234:265.9536|149.0235:308.0006:70.0288|149.0235:70.0288:70.0652|149.0235:70.0288:70.0652,308.00055;265.9536;149.0235;70.0652;70.0288,Eawag_Additional_Specs,NA,NA,NA,NA,NA,NA
stpQQR635,PRZ_M392a,CC(O)CN(CCOC1=C(Cl)C=C(Cl)C=C1Cl)C(=O)N1C=CN=C1,391.0257,C15H16Cl3N3O3,"InChI=1S/C15H16Cl3N3O3/c1-10(22)8-20(15(23)21-3-2-19-9-21)4-5-24-14-12(17)6-11(16)7-13(14)18/h2-3,6-7,9-10,22H,4-5,8H2,1H3",CAS_RN: NA,NA,YXJSNOWMOJFNPG-UHFFFAOYSA-N,NA,NA,Positive,ET200601|ET200602|ET200603|ET200604,[M+H]+,HCD20|HCD30|HCD40|HCD60,69.0448:149.0235:167.034|69.0448:149.0235:71.0856|69.0448:149.0235:71.0856|69.0448:149.0235:121.0284,167.034;149.0235;121.0284;71.0856;69.0448,Eawag_Additional_Specs,NA,NA,NA,NA,NA,NA
stpQQR636,"PRZ_M325|Urea, N-propyl-N-[2-(2,4,6-trichlorophenoxy)ethyl]-|1-propyl-1-[2-(2,4,6-trichlorophenoxy)ethyl]urea",CCCN(CCOC1=C(Cl)C=C(Cl)C=C1Cl)C(N)=O,324.0199,C12H15Cl3N2O2,"InChI=1S/C12H15Cl3N2O2/c1-2-3-17(12(16)18)4-5-19-11-9(14)6-8(13)7-10(11)15/h6-7H,2-5H2,1H3,(H2,16,18)",CAS_RN: 139520-94-8,NA,MPNJTIZLDHWBFX-UHFFFAOYSA-N,1217696,DTXSID10363092,Positive,ET200701|ET200702|ET200703|ET200704,[M+H]+,HCD35|HCD40|HCD50|HCD70,282.0213:129.1023:86.0964|86.0965:129.1023:282.0214|86.0965:129.1023:87.0554|86.0964:87.0553:67.0543,282.02135;129.1023;87.05535;86.09645;67.0543,Eawag_Additional_Specs,NA,NA,NA,NA,NA,NA
stpQQR637,PRZ_M298,CC(O)CNCCOC1=C(Cl)C=C(Cl)C=C1Cl,297.009,C11H14Cl3NO2,"InChI=1S/C11H14Cl3NO2/c1-7(16)6-15-2-3-17-11-9(13)4-8(12)5-10(11)14/h4-5,7,15-16H,2-3,6H2,1H3",CAS_RN: NA,NA,CCROUVCATXGAFZ-UHFFFAOYSA-N,NA,NA,Positive,ET200801|ET200802|ET200803|ET200804|ET200805,[M+H]+,HCD10|HCD20|HCD30|HCD50|HCD70,298.0163:280.0058:84.0808|298.0163:280.0057:84.0808|280.0057:298.0162:70.0651|70.0651:56.0495:85.0886|70.0651:56.0495:67.0542,280.0057;85.0886;84.0808;70.0651;67.0542;56.0495,Eawag_Additional_Specs,NA,NA,NA,NA,NA,NA
stpQQR638,PRZ_M429,CCCN(CCOC1=C(Cl)C=C(Cl)C=C1Cl)C(=O)SCC(N)C(O)=O,428.0131,C15H19Cl3N2O4S,"InChI=1S/C15H19Cl3N2O4S/c1-2-3-20(15(23)25-8-12(19)14(21)22)4-5-24-13-10(17)6-9(16)7-11(13)18/h6-7,12H,2-5,8,19H2,1H3,(H,21,22)",CAS_RN: NA,NA,HUHAANSJHKXOQG-UHFFFAOYSA-N,NA,NA,Positive,ET200901|ET200902|ET200903|ET200904|ET200905,[M+H]+,HCD10|HCD20|HCD30|HCD50|HCD70,429.0203:308.0006:282.0214|308.0006:429.0203:265.9537|308.0005:70.0287:70.0651|70.0287:70.0651:194.9165|70.0287:70.0651:166.9216,308.0006;282.0214;265.9537;194.9165;166.9216;70.0651;70.0287,Eawag_Additional_Specs,NA,NA,NA,NA,NA,NA
stpQQR639,"PRZ_M239|2-(2,4,6-trichlorophenoxy)ethanamine",NCCOC1=C(Cl)C=C(Cl)C=C1Cl,238.9671,C8H8Cl3NO,"InChI=1S/C8H8Cl3NO/c9-5-3-6(10)8(7(11)4-5)13-2-1-12/h3-4H,1-2,12H2",CAS_RN: NA,NA,SUSCJRQKCYABMX-UHFFFAOYSA-N,5481558,DTXSID60891613,Positive,ET201001|ET201002|ET201003|ET201004|ET201005,[M+H]+,HCD10|HCD20|HCD30|HCD50|HCD70,239.9746:119.0492:222.9481|239.9746:119.0492:222.9484|239.9746:119.0492:222.948|119.0492:105.07:196.9325|91.0543:105.07:161.9635,222.9481;196.9325;161.9635;119.0492;105.07;91.0543,Eawag_Additional_Specs,NA,NA,NA,NA,NA,NA
stpQQR640,PRZ_M435,NA,434.0679,NA,NA,CAS_RN: NA,NA,NA,NA,NA,Positive,ET201101|ET201102|ET201103|ET201104|ET201105,[M+H]+,HCD10|HCD20|HCD30|HCD50|HCD70,435.0754:282.0214:154.061|435.0753:154.0611:282.0215|154.0612:282.0216:435.0756|154.0612:110.035:81.07|110.035:154.0612:82.04,282.0215;154.0612;110.035;82.04;81.07,Eawag_Additional_Specs,NA,NA,NA,NA,NA,NA
stpQQR641,PRZ_M382,CCCN(CCOC1=C(Cl)C=C(Cl)C=C1Cl)C(=O)N(CO)C=N,381.0414,C14H18Cl3N3O3,"InChI=1S/C14H18Cl3N3O3/c1-2-3-19(14(22)20(8-18)9-21)4-5-23-13-11(16)6-10(15)7-12(13)17/h6-8,18,21H,2-5,9H2,1H3",CAS_RN: NA,NA,LRLDLEGEIWYGJQ-UHFFFAOYSA-N,NA,DTXSID20891614,Positive,ET201201|ET201202|ET201203|ET201204|ET201205,[M+H]+,HCD10|HCD20|HCD30|HCD50|HCD70,365.0221:308.0005:382.0487|308.0006:365.0221:337.027|308.0006:70.0287:239.9745|70.0287:70.0651:308.0006|70.0287:70.0651:194.9165,365.0221;337.027;308.0006;239.9745;194.9165;70.0651;70.0287,Eawag_Additional_Specs,NA,NA,NA,NA,NA,NA
stpQQR642,PRZ_M632a,CCCN(CCOC1=C(Cl)C(OC2O[C@H](COS(O)(=O)=O)[C@@H](O)[C@H](O)[C@H]2O)=C(Cl)C=C1Cl)C(=O)N1C=CN=C1,633.0354,C21H26Cl3N3O11S,"InChI=1S/C21H26Cl3N3O11S/c1-2-4-26(21(31)27-5-3-25-10-27)6-7-35-18-11(22)8-12(23)19(14(18)24)38-20-17(30)16(29)15(28)13(37-20)9-36-39(32,33)34/h3,5,8,10,13,15-17,20,28-30H,2,4,6-7,9H2,1H3,(H,32,33,34)/t13-,15-,16+,17-,20?/m1/s1",CAS_RN: NA,NA,UNCSXZRCRHPBJA-PQCYZMNFSA-N,NA,DTXSID80891615,Negative,NA,NA,NA,NA,NA,NA,ET201351|ET201352|ET201353|ET201354|ET201355;ET201651|ET201652|ET201653|ET201654|ET201655,[M-H]-;[M-H]-,HCD20|HCD40|HCD60|HCD80|HCD90;HCD20|HCD40|HCD60|HCD80|HCD90,241.0031:96.9602|96.9602:241.0032:67.0295|96.9602:241.0033:79.9571|96.9602:79.9571:87.0086|96.9602:79.9571:87.0085;241.0031:96.9602|241.0031:96.9602:79.9571|96.9602:241.0032:79.9571|96.9602:79.9571:80.965|96.9602:79.9571:87.0086,241.00315;96.9602;87.0086;80.965;79.9571;67.0295,Eawag_Additional_Specs;Eawag_Additional_Specs