NORMAN_ID,NAME,SMILES,NEUTRAL_EXACT_MASS,FORMULA,StdInChI,CAS_RN,PUBCHEM_CID,InChIKey,CHEMSPIDER_ID,DTXSID,Preferable Ionization,MB_Records Positive Ionization,Adduct Positive Ionization,Ionisation type and collision energy Positive Ionization,Fragments Positive Ionization,Simplified_fragments_Positive,Institute Positive Ionization,MB_Records Negative Ionization,Adduct Negative Ionization,Ionisation type and collision energy Negative Ionization,Fragments Negative Ionization,Simplified_fragments_Negative,Institute Negative Ionization
stpQQR898,Venlafaxine|1-[2-(dimethylamino)-1-(4-methoxyphenyl)ethyl]-1-cyclohexanol,CN(C)CC(C1=CC=C(C=C1)OC)C2(CCCCC2)O,277.2042,C17H27NO2,"InChI=1S/C17H27NO2/c1-18(2)13-16(17(19)11-5-4-6-12-17)14-7-9-15(20-3)10-8-14/h7-10,16,19H,4-6,11-13H2,1-3H3",CAS_RN: 93413-69-5,5656,PNVNVHUZROJLTJ-UHFFFAOYSA-N,5454,DTXSID6023737,Positive,AU150201|AU150202|AU150203|AU150204|AU150205;SM832201;EA064501|EA064502|EA064503|EA064504|EA064505|EA064506|EA064507|EA064508|EA064509|EA064510|EA064511|EA064512|EA064513|EA064514;ET190001|ET190002|ET190003|ET190004|ET190005;TUE00811|TUE00812|TUE00813,[M+H]+;[M+H]+;[M+H]+;[M+H]+;[M+H]+,"CID10|CID20|CID30|CID40|CID50;HCD35;CID35|HCD15|HCD30|HCD45|HCD60|HCD75|HCD90|HCD15|HCD30|HCD45|HCD60|HCD75|HCD90|CID35;HCD15, 30, 45, 60, 70 or 90|HCD15, 30, 45, 60, 70 or 90|HCD15, 30, 45, 60, 70 or 90|HCD15, 30, 45, 60, 70 or 90|HCD15, 30, 45, 60, 70 or 90;NA10.0V|NA20.0V|NA40.0V",278.2126:260.2011:279.2154|260.2006:278.2126:215.1427|121.0639:147.0792:173.0949|121.0643:147.0797:173.0954|121.0643:159.0789:132.056;58.0653:278.2118:260.2013;260.2014:215.1432:121.0643|278.2118:260.2016:58.0651|58.0652:260.2012:278.212|58.0652:121.065:215.1432|58.0652:121.065:147.0807|58.0652:121.0649:147.0805|58.0652:121.065:91.0544|278.212:260.2011:58.0651|58.0652:260.2012:278.2121|58.0652:121.0649:215.1432|58.0652:121.0649:147.0806|58.0652:121.0649:147.0806|58.0652:121.0649:91.0543|260.2011:215.1431:121.0647;278.2119:260.2013:58.0656|58.0656:260.2014:215.1436|58.0656:121.065:147.0808|58.0656:121.065:147.0807|58.0656:121.065:91.0544;58.0653:278.212:260.2014|58.0652:121.0646:215.1431|58.0652:121.0646:91.0541,260.20125;215.1432;173.09515;159.0789;147.0806;132.056;121.0649;91.05435;58.0652,Athens_Univ;CASMI_2016;Eawag;Eawag_Additional_Specs;Env_Anal_Chem_U_Tuebingen,NA,NA,NA,NA,NA,NA
stpQQR899,Sulfanilic acid| 4-aminobenzenesulfonic acid,S(c1ccc(N)cc1)(O)(=O)=O,173.0147,C6H7NO3S,"InChI=1S/C6H7NO3S/c7-5-1-3-6(4-2-5)11(8,9)10/h1-4H,7H2,(H,8,9,10)",CAS_RN: 121-57-3,8479,HVBSAKJJOYLTQU-UHFFFAOYSA-N,8166,DTXSID6024464,Positive/Negative,EA065201|EA065202|EA065203|EA065204|EA065205|EA065206|EA065207|EA065208|EA065209|EA065210|EA065211|EA065212|EA065213|EA065214,[M+H]+,CID35|HCD15|HCD30|HCD45|HCD60|HCD75|HCD90|HCD15|HCD30|HCD45|HCD60|HCD75|HCD90|CID35,156.0113:93.0573:94.0651|174.022:93.0573:156.0113|93.0573:174.022:156.0114|93.0573:174.0219:108.0444|93.0573:174.022:108.0444|93.0573:92.0494:108.0443|93.0573:92.0495:65.0386|174.0219:93.0573:156.0114|93.0573:174.0219:156.0113|93.0573:174.0219:108.0444|93.0573:174.022:108.0444|93.0573:92.0495:108.0444|93.0573:92.0495:65.0386|156.0114:93.0573:94.0652,156.01135;108.0444;94.06515;93.0573;92.0495;65.0386,Eawag,EA065251|EA065252|EA065253|EA065254|EA065255|EA065256|EA065257|EA065258|EA065259|EA065260|EA065261|EA065262|EA065263,[M-H]-,CID35|HCD15|HCD30|HCD45|HCD60|HCD75|HCD90|HCD15|HCD30|HCD45|HCD60|HCD75|HCD90,172.0073:108.0454:79.9573|172.0071|172.007|172.0071:108.045:79.957|172.007:79.9573:108.0453|172.0071:79.9572:108.0453|79.9574:172.0072:108.0453|172.0074|172.0074|172.0073:108.0453:79.9573|172.0071:79.9573:108.0453|172.0072:79.9574:108.0454|79.9574:172.0077:108.0454,172.0072;108.0453;79.9573,Eawag
stpQQR900,2-Naphthalenesulfonic acid| 2-naphthalenesulfonic acid,OS(C1=CC2=C(C=CC=C2)C=C1)(=O)=O,208.0194,C10H8O3S,"InChI=1S/C10H8O3S/c11-14(12,13)10-6-5-8-3-1-2-4-9(8)7-10/h1-7H,(H,11,12,13)",CAS_RN: 120-18-3,8420,KVBGVZZKJNLNJU-UHFFFAOYSA-N,8113,DTXSID5044788,Positive/Negative,EA065301|EA065302|EA065303|EA065304|EA065305|EA065306|EA065307|EA065308|EA065309|EA065310|EA065311|EA065312|EA065313|EA065314,[M+H]+,CID35|HCD15|HCD30|HCD45|HCD60|HCD75|HCD90|HCD15|HCD30|HCD45|HCD60|HCD75|HCD90|CID35,128.062:191.0162:145.0648|209.0267:128.062:191.0164|128.062:209.0266:155.0603|128.062:155.0604:145.065|128.062:155.0603:103.0543|128.062:155.0603:103.0541|128.062:155.0603:127.0542|209.0265:128.062:155.0599|128.0619:209.0265:155.0602|128.0619:155.0602:145.0647|128.0619:155.0602:145.0646|128.062:155.0603:127.0542|128.0619:155.0602:127.0542|128.062:191.016:145.0648,191.0162;155.0603;145.0648;128.062;127.0542;103.0542,Eawag,SM881155;EA065351|EA065352|EA065353|EA065354|EA065355|EA065356|EA065357|EA065358|EA065359|EA065360|EA065361|EA065362|EA065363,[M-H]-;[M-H]-,HCD35;CID35|HCD15|HCD30|HCD45|HCD60|HCD75|HCD90|HCD15|HCD30|HCD45|HCD60|HCD75|HCD90,207.0122:143.0502:118.9924;143.0504:207.012:79.9575|207.0116|207.012|207.012:143.0503:79.9572|207.0116:143.05:79.9573|143.0503:79.9574:207.0122|143.0501:79.9573:115.0558|207.0121|207.012|207.0122:143.0502:79.9575|207.0121:143.0502:79.9574|143.0501:79.9574:207.0116|143.0502:79.9573:115.0553,207.012;143.0502;118.9924;115.05555;79.9574,CASMI_2016;Eawag
stpQQR901,"2,7-Naphthalenedisulfonic acid| naphthalene-2,7-disulfonic acid",O=S(O)(C1=CC(C=C(C=C2)S(=O)(O)=O)=C2C=C1)=O,287.9762,C10H8O6S2,"InChI=1S/C10H8O6S2/c11-17(12,13)9-3-1-7-2-4-10(18(14,15)16)6-8(7)5-9/h1-6H,(H,11,12,13)(H,14,15,16)",CAS_RN: 92-41-1,66707,VILFVXYKHXVYAB-UHFFFAOYSA-N,60073,DTXSID3059054,Negative,NA,NA,NA,NA,NA,NA,SM867751;EA065451|EA065461,[M-H]-;[M-H]-,HCD35;CID35|HCD60,286.969:207.0122:143.0503;207.012|207.0118,286.969;207.012;143.0503,CASMI_2016;Eawag
stpQQR902,"Clindamycin|(2S,4R)-N-[2-chloranyl-1-[(2R,3R,4S,5R,6R)-6-methylsulfanyl-3,4,5-tris(oxidanyl)oxan-2-yl]propyl]-1-methyl-4-propyl-pyrrolidine-2-carboxamide",CCC[C@@H]1C[C@H](N(C1)C)C(=O)NC([C@@H]2[C@@H]([C@@H]([C@H]([C@H](O2)SC)O)O)O)C(C)Cl,424.1799,C18H33ClN2O5S1,"InChI=1S/C18H33ClN2O5S/c1-5-6-10-7-11(21(3)8-10)17(25)20-12(9(2)19)16-14(23)13(22)15(24)18(26-16)27-4/h9-16,18,22-24H,5-8H2,1-4H3,(H,20,25)/t9?,10-,11+,12?,13+,14-,15-,16-,18-/m1/s1",CAS_RN: 18323-44-9,29029,KDLRVYVGXIQJDK-NOWPCOIGSA-N,27005,NA,Positive,EA065701|EA065702|EA065703|EA065704|EA065705|EA065706|EA065707|EA065708|EA065709|EA065710|EA065711|EA065712|EA065713|EA065714,[M+H]+,CID35|HCD15|HCD30|HCD45|HCD60|HCD75|HCD90|HCD15|HCD30|HCD45|HCD60|HCD75|HCD90|CID35,377.1834:126.1275:389.21|425.187:126.1273|126.1278:425.1869:377.1837|126.1277|126.1278:70.0652:82.0651|126.1277:70.0651:83.0729|126.1278:70.0652:83.0729|425.1871:126.1275:377.1844|126.1277:425.1869:377.1835|126.1277:335.1738:353.1051|126.1278:70.0651:83.0729|126.1278:70.0651:83.073|126.1277:70.0651:83.0729|377.1841:126.1277:389.2102,389.2101;377.1837;353.1051;335.1738;126.1277;83.0729;82.0651;70.0651,Eawag,NA,NA,NA,NA,NA,NA
stpQQR903,"Oseltamivir| (3R,4R,5S)-4-acetamido-5-amino-3-(1-ethylpropoxy)cyclohexene-1-carboxylic acid ethyl ester",CCC(CC)OC1C=C(CC(C1NC(=O)C)N)C(=O)OCC,312.2049,C16H28N2O4,"InChI=1S/C16H28N2O4/c1-5-12(6-2)22-14-9-11(16(20)21-7-3)8-13(17)15(14)18-10(4)19/h9,12-15H,5-8,17H2,1-4H3,(H,18,19)/t13-,14+,15+/m0/s1",CAS_RN: 196618-13-0,65028,VSZGPKBBMSAYNT-RRFJBIMHSA-N,58540,DTXSID9044291,Positive,AU206801|AU206802|AU206803|AU206804|AU206805;EA065801|EA065802|EA065803|EA065804|EA065805|EA065806|EA065807|EA065808|EA065809|EA065810|EA065811|EA065812|EA065813|EA065814,[M+H]+;[M+H]+,CID10|CID20|CID30|CID40|CID50;CID35|HCD15|HCD30|HCD45|HCD60|HCD75|HCD90|HCD15|HCD30|HCD45|HCD60|HCD75|HCD90|CID35,225.1234:313.2125:208.0967|166.0854:208.0961:225.1231|166.0853:120.0437:137.0699|166.0851:120.0435:138.0536|120.0435:138.0541:137.0698;225.1236:208.097:296.1857|225.1235:313.2127:166.0865|166.0864:208.0969:120.0444|166.0864:120.0445:137.071|120.0444:166.0863:94.0652|120.0444:94.0651:138.055|120.0445:94.0652:92.0496|225.1236:313.2123:166.0864|166.0864:208.097:120.0445|166.0864:120.0445:137.071|120.0445:166.0864:94.0652|120.0444:94.0652:92.0495|120.0444:94.0652:92.0495|225.1235:208.097:166.0863,296.1857;225.1235;208.09695;166.0864;138.0541;137.07045;120.0444;94.0652;92.0495,Athens_Univ;Eawag,NA,NA,NA,NA,NA,NA
stpQQR904,"Oseltamivir carboxylate|(3R,4R,5S)-4-acetamido-5-amino-3-pentan-3-yloxycyclohexene-1-carboxylic acid",CCC(CC)O[C@@H]1C=C(C[C@@H]([C@H]1NC(=O)C)N)C(=O)O,284.1736,C14H24N2O4,"InChI=1S/C14H24N2O4/c1-4-10(5-2)20-12-7-9(14(18)19)6-11(15)13(12)16-8(3)17/h7,10-13H,4-6,15H2,1-3H3,(H,16,17)(H,18,19)/t11-,12+,13+/m0/s1",CAS_RN: 187227-45-8,449381,NENPYTRHICXVCS-YNEHKIRRSA-N,395929,DTXSID50171996,Positive/Negative,AU206701|AU206702|AU206703|AU206704|AU206705;EA065901|EA065902|EA065903|EA065904|EA065905|EA065906|EA065907|EA065908|EA065909|EA065910|EA065911|EA065912|EA065913|EA065914,[M+H]+;[M+H]+,CID10|CID20|CID30|CID40|CID50;CID35|HCD15|HCD30|HCD45|HCD60|HCD75|HCD90|HCD15|HCD30|HCD45|HCD60|HCD75|HCD90|CID35,197.0909:285.18:215.1015|138.0544:180.0646:198.0756|138.0543:120.0432:137.0698|138.0541:120.0441:137.0702|120.0433:138.0556:137.0696;197.0924:215.1028:268.1545|197.0923:285.181:215.1027|138.0551:197.0921:180.0656|138.0551:94.0652:120.0444|138.0551:94.0653:120.0446|94.0652:120.0444:138.055|94.0652:120.0445:92.0495|197.0924:285.1812:215.1028|138.0551:197.0922:180.0656|138.0551:94.0652:120.0445|138.0551:94.0652:120.0445|94.0652:120.0445:138.055|94.0652:120.0445:92.0495|197.0923:215.1029:268.1545,268.1545;215.1028;198.0756;197.0923;180.0656;138.0551;137.0698;120.0445;94.0652;92.0495,Athens_Univ;Eawag,EA065951|EA065952|EA065953|EA065954|EA065955|EA065956|EA065957|EA065958|EA065959|EA065960|EA065961|EA065962|EA065963,[M-H]-,CID35|HCD15|HCD30|HCD45|HCD60|HCD75|HCD90|HCD15|HCD30|HCD45|HCD60|HCD75|HCD90,195.0778:151.0878:224.1293|283.1663:195.0777:224.1295|136.0404:195.0774:151.0876|136.0403:92.0503:151.0875|92.0502|92.0507:151.0882|195.0776|283.1658:195.0774:224.1291|195.0777:136.0405:151.0877|136.0404:92.0505:134.0611|92.0506:136.0404:151.0881|92.0505:134.0606:195.0772|92.0506:195.0779,283.16605;224.1293;195.07765;151.08775;136.0404;134.06085;92.0505,Eawag
stpQQR905,"Galaxolidone|1,3,4,6,7,8-Hexahydro-4,6,6,7,8,8-hexamethylcyclopenta[g]-2-benzopyran-1-on",CC2(C)c1cc3C(=O)OCC(C)c3cc1C(C)(C)C2C,272.1776,C18H24O2,"InChI=1S/C18H24O2/c1-10-9-20-16(19)13-8-15-14(7-12(10)13)17(3,4)11(2)18(15,5)6/h7-8,10-11H,9H2,1-6H3",CAS_RN: 256393-37-0,69131857,PGMHPYRIXBRRQD-UHFFFAOYSA-N,28290252,DTXSID10881089,Positive,AU205301|AU205302|AU205303|AU205304|AU205305;EA066001|EA066002|EA066003|EA066004|EA066005|EA066006|EA066007|EA066008|EA066009|EA066010|EA066011|EA066012|EA066013|EA066014,[M+H]+;[M+H]+,CID10|CID20|CID30|CID40|CID50;CID35|HCD15|HCD30|HCD45|HCD60|HCD75|HCD90|HCD15|HCD30|HCD45|HCD60|HCD75|HCD90|CID35,273.1842:259.1898:271.1893|273.1839:255.173:256.1773|255.1732:240.1497:256.1769|225.1262:212.1555:197.1312|197.1308:225.1279:129.0694;255.1747:175.1117:203.1066|273.1852:197.1329:212.1562|273.185:255.1741:175.1117|255.1742:273.1845:240.1506|255.1742:240.1509:225.1273|225.1273:212.1559:197.1324|197.1325:225.1274:129.0699|273.185:255.1746:157.101|273.185:255.1742:197.1333|255.1744:273.1846:240.1507|255.1742:240.1507:225.1272|225.1273:212.1559:197.1324|197.1326:225.1274:129.0699|255.1745:175.1118:227.1793,271.1893;259.1898;256.1771;255.1742;240.1507;227.1793;225.1273;212.1559;203.1066;197.13245;175.1117;157.101;129.0699,Athens_Univ;Eawag,NA,NA,NA,NA,NA,NA
stpQQR906,"Exemestane|(8R,9S,10R,13S,14S)-10,13-dimethyl-6-methylene-7,8,9,11,12,14,15,16-octahydrocyclopenta[a]phenanthrene-3,17-dione",CC12CCC3C(C1CCC2=O)CC(=C)C4=CC(=O)C=CC34C,296.1776,C20H24O2,"InChI=1S/C20H24O2/c1-12-10-14-15-4-5-18(22)20(15,3)9-7-16(14)19(2)8-6-13(21)11-17(12)19/h6,8,11,14-16H,1,4-5,7,9-10H2,2-3H3/t14-,15-,16-,19+,20-/m0/s1",CAS_RN: 107868-30-4,60198,BFYIZQONLCFLEV-DAELLWKTSA-N,54278,DTXSID5023037,Positive,AU224201|AU224202|AU224203|AU224204|AU224205;EA066101|EA066102|EA066103|EA066104|EA066105|EA066106|EA066107|EA066108|EA066109|EA066110|EA066111|EA066112|EA066113|EA066114,[M+H]+;[M+H]+,CID10|CID20|CID30|CID40|CID50;CID35|HCD15|HCD30|HCD45|HCD60|HCD75|HCD90|HCD15|HCD30|HCD45|HCD60|HCD75|HCD90|CID35,297.1869:298.1901:279.1757|149.0965:279.176:297.1863|149.0957:121.0646:147.0802|121.0647:149.096:147.0804|121.0649:128.062:115.0542;279.1744:149.0961:185.096|297.1854:279.1746:149.0963|297.1848:149.0961:279.1743|121.1012:149.0961:93.0699|93.0699:121.0649:121.1012|93.0698:121.0647:105.0698|91.0542:105.0699:79.0542|297.185:279.174:149.0959|297.1848:149.0961:279.1743|149.096:121.1011:93.0699|93.0699:121.0648:121.1011|93.0699:121.0648:105.0699|91.0542:79.0542:93.0699|279.1743:149.096:185.0959,279.17435;185.09595;149.0961;147.0803;128.062;121.10115;121.0648;115.0542;105.0699;93.0699;91.0542;79.0542,Athens_Univ;Eawag,NA,NA,NA,NA,NA,NA
stpQQR907,Flufenacet ESA|2-[(4-Fluorophenyl)(isopropyl)amino]-2-oxoethanesulfonic acid,Fc1ccc(cc1)N(C(C)C)C(=O)CS(O)(=O)=O,275.0628,C11H14F1NO4S1,"InChI=1S/C11H14FNO4S/c1-8(2)13(11(14)7-18(15,16)17)10-5-3-9(12)4-6-10/h3-6,8H,7H2,1-2H3,(H,15,16,17)",CAS_RN: NA,16212225,SZCMHDLOUVZYST-UHFFFAOYSA-N,17340103,DTXSID60891451,Positive/Negative,AU205401|AU205402|AU205403|AU205404;EA066301|EA066302|EA066303|EA066304|EA066305|EA066306|EA066307|EA066308|EA066309|EA066310|EA066311|EA066312|EA066313|EA066314,[M+H]+;[M+H]+,CID10|CID20|CID30|CID40;CID35|HCD15|HCD30|HCD45|HCD60|HCD75|HCD90|HCD15|HCD30|HCD45|HCD60|HCD75|HCD90|CID35,276.069:234.0226:277.0722|234.0224:216.0122:235.0253|135.0465:216.0107:124.0542|135.0469:124.0555:112.0553;234.0233:112.0556:216.0122|276.0703:234.0231:216.0126|234.023:112.0557:276.0699|112.0558:216.0124:234.0232|112.0557:124.0557:135.0478|112.0558:124.0557:135.048|112.0557:135.0479:124.0557|276.07:234.023:216.0128|234.0231:112.0557:276.07|112.0557:216.0125:234.023|112.0558:124.0557:135.0479|112.0557:135.0479:124.0557|112.0557:135.0478:124.0556|234.023,235.0253;234.023;216.0124;135.04785;124.0557;112.0557,Athens_Univ;Eawag,EA066351|EA066352|EA066353|EA066354|EA066355|EA066356|EA066357|EA066358|EA066359|EA066360|EA066361|EA066362|EA066363|EA066364,[M-H]-,CID35|HCD15|HCD30|HCD45|HCD60|HCD75|HCD90|HCD15|HCD30|HCD45|HCD60|HCD75|HCD90|CID35,120.9604:232.0089:152.0884|274.0559|274.0557:120.9603|120.9603:79.9574:274.0559|79.9575:120.9604:76.9704|79.9574:76.9703:120.9602|79.9574:76.9704|274.0557|274.0557:120.96:79.9573|120.9603:79.9574:274.0556|79.9574:120.9602:76.9703|79.9574:76.9703:120.96|79.9574:76.9704:136.0563|120.9603:232.0086:152.0883,274.0557;232.00875;152.08835;136.0563;120.9603;79.9574;76.97035,Eawag
stpQQR908,Flufenacet OXA|[(4-Fluorophenyl)(isopropyl)amino](oxo)acetic acid,Fc1ccc(cc1)N(C(C)C)C(=O)C(O)=O,225.0801,C11H12F1N1O3,"InChI=1S/C11H12FNO3/c1-7(2)13(10(14)11(15)16)9-5-3-8(12)4-6-9/h3-7H,1-2H3,(H,15,16)",CAS_RN: 201668-31-7,16212222,FFKNXXCOXIZLJD-UHFFFAOYSA-N,17340100,DTXSID2037552,Positive/Negative,AU205501|AU205502;EA066401|EA066402|EA066403|EA066404|EA066405|EA066406|EA066407|EA066408|EA066409|EA066410|EA066411|EA066412|EA066413|EA066414,[M+H]+;[M+H]+,CID10|CID20;CID35|HCD15|HCD30|HCD45|HCD60|HCD75|HCD90|HCD15|HCD30|HCD45|HCD60|HCD75|HCD90|CID35,184.0397:180.0806:138.0339|138.0338:165.0539:184.0384;180.0822:184.0405:138.0351|226.0874:138.035:184.0405|138.0351:110.0401:184.0406|138.035:110.0401:184.0404|110.0401:138.0351:83.0292|110.0401:138.035:123.0353|110.04:83.0291:123.0353|226.0874:138.035:180.082|138.035:110.0401:184.0405|138.035:110.0401:184.0405|110.04:138.035:122.04|110.0401:138.035:123.0354|110.0401:83.0292:123.0353|180.0822:184.0405:138.0351,184.0405;180.0821;165.0539;138.035;123.0353;122.04;110.0401;83.0292,Athens_Univ;Eawag,EA066451|EA066452|EA066453|EA066454|EA066455|EA066456|EA066457|EA066458|EA066459|EA066460|EA066461|EA066462|EA066463|EA066464,[M-H]-,CID35|HCD15|HCD30|HCD45|HCD60|HCD75|HCD90|HCD15|HCD30|HCD45|HCD60|HCD75|HCD90|CID35,152.0887:136.0571|152.0885:136.0573:224.073|152.0886:136.0571:110.0414|152.0885:136.0571:110.0414|136.0571:152.0885:95.0305|136.0571:95.0305:134.0414|136.057:134.0414:110.0413|152.0886:136.057:224.0733|152.0887:136.0572:150.0728|152.0885:136.0572:150.0728|136.0572:152.0884:95.0305|136.0571:95.0303:134.0414|136.057:134.0412:110.0412|152.0887,224.07315;152.08855;150.0728;136.0571;134.0414;110.04135;95.0305,Eawag
stpQQR909,Propachlor ESA|2-[Isopropyl(phenyl)amino]-2-oxoethanesulfonic acid,O=S(=O)(O)CC(=O)N(c1ccccc1)C(C)C,257.0722,C11H15N1O4S1,"InChI=1S/C11H15NO4S/c1-9(2)12(10-6-4-3-5-7-10)11(13)8-17(14,15)16/h3-7,9H,8H2,1-2H3,(H,14,15,16)",CAS_RN: 123732-85-4,16212221,BFSZJLBDHMMCAH-UHFFFAOYSA-N,17340099,DTXSID20891452,Positive/Negative,AU207201|AU207202|AU207203;EA066501|EA066502|EA066503|EA066504|EA066505|EA066506|EA066507|EA066508|EA066509|EA066510|EA066511|EA066512|EA066513|EA066514,[M+H]+;[M+H]+,CID10|CID20|CID30;CID35|HCD15|HCD30|HCD45|HCD60|HCD75|HCD90|HCD15|HCD30|HCD45|HCD60|HCD75|HCD90|CID35,258.0791:216.0318:217.0345|216.0316:198.021:136.0744|256.1102:198.0217:117.0579;216.0326:198.0222:94.065|258.0798:216.0327:94.065|216.0328:258.0796:94.0653|94.0653:216.0324:198.0221|94.0652:106.0651:117.0573|94.0652:106.0652:117.0573|94.0651:106.0651:117.0573|258.0796:216.0326:94.0655|216.0326:94.0651:258.0793|94.0652:216.0324:198.0219|94.0652:106.0651:117.0573|94.0651:106.0651:117.0572|94.0652:106.0651:117.0573|216.0325:198.0219:94.0649,256.1102;217.0345;216.03255;198.0219;136.0744;117.0573;106.0651;94.0652,Athens_Univ;Eawag,EA066551|EA066552|EA066553|EA066554|EA066555|EA066556|EA066557|EA066558|EA066559|EA066560|EA066561|EA066562|EA066563|EA066564,[M-H]-,CID35|HCD15|HCD30|HCD45|HCD60|HCD75|HCD90|HCD15|HCD30|HCD45|HCD60|HCD75|HCD90|CID35,120.9605:214.0186:162.0235|256.0655:79.9571|256.0657:120.9606:79.9574|79.9575:120.9604:256.0655|79.9575:120.9604:76.9704|79.9575:76.9704:120.9603|79.9575:76.9705|256.0655|256.0655:120.9603:79.9574|79.9575:256.0654:120.9602|79.9574:120.9602:76.9704|79.9575:76.9704:120.9601|79.9575:76.9705|120.9605:214.0183:162.0234,256.0655;214.01845;162.02345;120.96035;79.9575;76.9704,Eawag
stpQQR910,Propachlor OXA|N-(1-Methylethyl)-N-(phenyl)oxalamic acid| 2-(N-isopropylanilino)-2-keto-acetic acid,CC(C)N(C(=O)C(O)=O)c1ccccc1,207.0895,C11H13N1O3,"InChI=1S/C11H13NO3/c1-8(2)12(10(13)11(14)15)9-6-4-3-5-7-9/h3-8H,1-2H3,(H,14,15)",CAS_RN: 70628-36-3,155385,HYHJOUPYTUBFIX-UHFFFAOYSA-N,136883,DTXSID8037592,Positive,AU207301|AU207302|AU207303|AU207304|AU207305;EA066601|EA066602|EA066603|EA066604|EA066605|EA066606|EA066607|EA066608|EA066609|EA066610|EA066611|EA066612|EA066613|EA066614,[M+H]+;[M+H]+,CID10|CID20|CID30|CID40|CID50;CID35|HCD15|HCD30|HCD45|HCD60|HCD75|HCD90|HCD15|HCD30|HCD45|HCD60|HCD75|HCD90|CID35,166.0488:162.09:120.0438|120.0438:164.0925:121.0469|164.0928:120.0442:150.0762|164.0929:120.0429:150.076|137.0812;162.0916:166.0501:120.0445|120.0444:208.0967:166.0498|120.0444:92.0495:166.0498|120.0444:92.0495:77.0386|120.0443:92.0494:77.0385|92.0495:120.0444:77.0386|92.0494:77.0385:105.0447|120.0444:208.0967:166.0498|120.0444:92.0495:166.0498|120.0444:92.0495:77.0385|120.0443:92.0494:77.0385|92.0494:120.0444:77.0386|77.0385:92.0494:105.0446|162.0913:166.0498:120.0443,166.0498;164.0928;162.0913;150.0761;137.0812;121.0469;120.0444;105.04465;92.04945;77.0385,Athens_Univ;Eawag,NA,NA,NA,NA,NA,NA