NORMAN_ID,NAME,SMILES,NEUTRAL_EXACT_MASS,FORMULA,StdInChI,CAS_RN,PUBCHEM_CID,InChIKey,CHEMSPIDER_ID,DTXSID,Preferable Ionization,MB_Records Positive Ionization,Adduct Positive Ionization,Ionisation type and collision energy Positive Ionization,Fragments Positive Ionization,Simplified_fragments_Positive,Institute Positive Ionization,MB_Records Negative Ionization,Adduct Negative Ionization,Ionisation type and collision energy Negative Ionization,Fragments Negative Ionization,Simplified_fragments_Negative,Institute Negative Ionization
stpQQR746,"Epoxiconazole|1-[[(2S,3R)-3-(2-chlorophenyl)-2-(4-fluorophenyl)-2-oxiranyl]methyl]-1,2,4-triazole",C1=CC=C(C(=C1)C2C(O2)(CN3C=NC=N3)C4=CC=C(C=C4)F)Cl,329.0726,C17H13ClFN3O,"InChI=1S/C17H13ClFN3O/c18-15-4-2-1-3-14(15)16-17(23-16,9-22-11-20-10-21-22)12-5-7-13(19)8-6-12/h1-8,10-11,16H,9H2/t16-,17-/m1/s1",CAS_RN: 133855-98-8,107901,ZMYFCFLJBGAQRS-IAGOWNOFSA-N,97030,NA,Positive,EA009501|EA009502|EA009503|EA009504|EA009505|EA009506|EA009507|EA009508|EA009509|EA009510|EA009511|EA009512|EA009513|EA009514,[M+H]+,CID35|HCD15|HCD30|HCD45|HCD60|HCD75|HCD90|HCD15|HCD30|HCD45|HCD60|HCD75|HCD90|CID35,123.0242:121.0449:141.0102|330.0805:121.0446:123.024|121.0449:123.0242:330.0805|121.0449:123.0241:141.0102|121.0449:123.0241:129.0447|121.0449:129.0448:123.0241|129.0448:121.0449:123.0353|330.0806:121.0447:123.024|121.0448:123.0241:330.0807|121.0449:123.0241:141.0102|121.0449:123.0241:129.0447|121.0449:129.0448:123.0241|129.0447:121.0448:123.0353|123.0241:121.0449:141.0102,141.0102;129.04475;123.0353;123.0241;121.0449,Eawag,NA,NA,NA,NA,NA,NA
stpQQR747,"Prochloraz|N-propyl-N-[2-(2,4,6-trichlorophenoxy)ethyl]-1-imidazolecarboxamide",Cl-c(cc(Cl)c1OCCN(C(=O)N(C=N2)C=C2)CCC)cc1Cl,375.0303,C15H16Cl3N3O2,"InChI=1S/C15H16Cl3N3O2/c1-2-4-20(15(22)21-5-3-19-10-21)6-7-23-14-12(17)8-11(16)9-13(14)18/h3,5,8-10H,2,4,6-7H2,1H3",CAS_RN: 67747-09-5,73665,TVLSRXXIMLFWEO-UHFFFAOYSA-N,66316,DTXSID4024270,Positive,SM838902;EA009601|EA009602|EA009603|EA009604|EA009605|EA009606|EA009607|EA009608|EA009609|EA009610|EA009611|EA009612|EA009613|EA009614;ET200001|ET200002|ET200003|ET200004;UF405803|UF405804,[M+H]+;[M+H]+;[M+H]+;[M+H]+,HCD35;CID35|HCD15|HCD30|HCD45|HCD60|HCD75|HCD90|HCD15|HCD30|HCD45|HCD60|HCD75|HCD90|CID35;HCD20|HCD30|HCD40|HCD60;CID35|CID55,308.0008:70.0288:70.0652;308.0006:265.9532|308.0003:265.9539:376.0397|308.0003:70.0287:265.9533|70.0651:70.0287:222.9479|70.0288:70.0652:194.9163|70.0287:70.0651:166.9215|166.9215:70.0287:132.9605|308.0005:265.9534:376.0376|308.0003:70.0287:265.9535|70.0651:70.0287:222.9478|70.0287:70.0651:194.9164|70.0287:70.0651:166.9216|166.9216:70.0287:132.9606|308.0004:265.9533;308.0007:265.9538:70.0288|308.0007:70.0288:265.9538|70.0288:70.0652:194.9166|70.0288:70.0652:166.9217;282.0213:308.0004:180.1133|282.0212:308.0009:180.1132,308.0005;282.02125;265.95345;222.94785;194.9164;180.11325;166.9216;132.96055;70.0651;70.0287,CASMI_2016;Eawag;Eawag_Additional_Specs;UFZ,NA,NA,NA,NA,NA,NA
stpQQR748,"Flusilazole|bis(4-fluorophenyl)-methyl-(1,2,4-triazol-1-ylmethyl)silane",n1(cncn1)C[Si](c1ccc(F)cc1)(C)c1ccc(cc1)F,315.0998,C16H15F2N3Si,"InChI=1S/C16H15F2N3Si/c1-22(12-21-11-19-10-20-21,15-6-2-13(17)3-7-15)16-8-4-14(18)5-9-16/h2-11H,12H2,1H3",CAS_RN: 85509-19-9,73675,FQKUGOMFVDPBIZ-UHFFFAOYSA-N,66326,DTXSID3024235,Positive,SM838502;EA009701|EA009702|EA009703|EA009704|EA009705|EA009706|EA009707|EA009708|EA009709|EA009710|EA009711|EA009712|EA009713|EA009714;UF401101|UF401102|UF401103|UF401104,[M+H]+;[M+H]+;[M+H]+,HCD35;CID35|HCD15|HCD30|HCD45|HCD60|HCD75|HCD90|HCD15|HCD30|HCD45|HCD60|HCD75|HCD90|CID35;HCD55|HCD80|CID35|CID55,316.1077:165.0699:185.0761;247.075:169.048:165.0699|316.1074|316.1073:169.0479:247.0747|165.0699:169.0478:247.0745|165.07:77.0386:185.0761|165.0698:77.0385:219.0431|165.07:109.0448:77.0386|316.1072:169.0477:187.0579|316.1074:169.0479:247.0746|165.0699:169.0478:247.0746|165.0699:77.0386:185.076|165.0698:77.0385:219.0434|165.0698:109.0447:77.0386|247.0748:169.0479:165.0698;165.0698:219.0435:169.0478|165.0699:109.0447:152.0621|247.0749:169.048:165.07|247.0748:169.0479:165.0699,247.07475;219.0434;187.0579;185.0761;169.0479;165.0699;152.0621;109.0447;77.0386,CASMI_2016;Eawag;UFZ,NA,NA,NA,NA,NA,NA
stpQQR749,"Alachlor ESA|2-[(2,6-diethylphenyl)-(methoxymethyl)amino]-2-oxidanylidene-ethanesulfonic acid",CCC1=CC=CC(CC)=C1N(COC)C(=O)CS(O)(=O)=O,315.114,C14H21NO5S,"InChI=1S/C14H21NO5S/c1-4-11-7-6-8-12(5-2)14(11)15(10-20-3)13(16)9-21(17,18)19/h6-8H,4-5,9-10H2,1-3H3,(H,17,18,19)",CAS_RN: 142363-53-9,115236,UTCJUUGCHWHUNI-UHFFFAOYSA-N,103108,DTXSID6037485,Negative,NA,NA,NA,NA,NA,NA,EA009951|EA009952|EA009953|EA009954|EA009955|EA009956|EA009957|EA009958|EA009959|EA009960|EA009961|EA009962|EA009963|EA009964,[M-H]-,CID35|HCD15|HCD30|HCD45|HCD60|HCD75|HCD90|HCD15|HCD30|HCD45|HCD60|HCD75|HCD90|CID35,120.9601:160.1131:176.108|314.1065:270.0767|314.1064:120.9599:79.9572|79.9573:314.1066:120.96|79.9573:120.9601:76.9701|79.9572:76.9701:158.0973|79.9573:76.9702:158.097|314.1064|314.1063:120.9599:79.957|79.9573:314.1064:120.96|79.9573:120.9599:76.9702|79.9573:76.9701:158.0974|79.9572:76.9702:158.0971|120.96:176.1078:160.1129,314.1064;270.0767;176.1079;160.113;158.0972;120.96;79.9573;76.97015,Eawag
stpQQR750,"Alachlor OXA|2-[(2,6-diethylphenyl)-(methoxymethyl)amino]-2-oxidanylidene-ethanoic acid",CCc1cccc(CC)c1N(COC)C(=O)C(O)=O,265.1314,C14H19NO4,"InChI=1S/C14H19NO4/c1-4-10-7-6-8-11(5-2)12(10)15(9-19-3)13(16)14(17)18/h6-8H,4-5,9H2,1-3H3,(H,17,18)",CAS_RN: 171262-17-2,14924483,MHCYOELBTPOBIU-UHFFFAOYSA-N,21170709,DTXSID1037486,Positive/Negative,AU202801|AU202802|AU202803,[M+H]+,CID10|CID20|CID30,234.1131:223.0361:188.1069|188.1052:160.1131:163.0005|188.1043,234.1131;223.0361;188.1052;163.0005;160.1131,Athens_Univ,EA010051|EA010052|EA010053|EA010054|EA010055|EA010056|EA010057|EA010058|EA010059|EA010060|EA010061|EA010062|EA010063|EA010064,[M-H]-,CID35|HCD15|HCD30|HCD45|HCD60|HCD75|HCD90|HCD15|HCD30|HCD45|HCD60|HCD75|HCD90|CID35,160.1132:192.1394:148.1133|160.1132:264.1236:162.0922|160.1131:158.0975|160.1132:158.0976|158.0975:160.1131:143.0738|158.0975:143.0739:144.0818|158.0975:143.0739:144.0818|160.1132:264.1236:162.092|160.1132:158.0974|160.1132:158.0975|158.0975:160.1131:143.0738|158.0975:143.0739:144.0817|158.0973:143.0738:144.0818|160.1132:192.1388:148.113,264.1236;192.1391;162.0921;160.1132;158.0975;148.11315;144.0818;143.07385,Eawag
stpQQR751,Acetochlor OXA|[(Ethoxymethyl)(2-ethyl-6-methylphenyl)amino](oxo)acetic acid,c(cc(C)c1N(C(=O)C(=O)O)COCC)cc1CC,265.1314,C14H19NO4,"InChI=1S/C14H19NO4/c1-4-11-8-6-7-10(3)12(11)15(9-19-5-2)13(16)14(17)18/h6-8H,4-5,9H2,1-3H3,(H,17,18)",CAS_RN: 194992-44-4,15842091,OTKTUNJJKYTOFF-UHFFFAOYSA-N,21170690,DTXSID1037484,Positive/Negative,AU202901|AU202902|AU202903|AU202904|AU202905,[M+H]+,CID10|CID20|CID30|CID40|CID50,220.0961:205.0226:174.0937|174.0893:146.096:148.1106|146.0952:174.0905|133.0861|131.071,220.0961;205.0226;174.0905;148.1106;146.0956;133.0861;131.071,Athens_Univ,EA010251|EA010252|EA010253|EA010254|EA010255|EA010256|EA010257|EA010258|EA010259|EA010260|EA010261|EA010262|EA010263|EA010264,[M-H]-,CID35|HCD15|HCD30|HCD45|HCD60|HCD75|HCD90|HCD15|HCD30|HCD45|HCD60|HCD75|HCD90|CID35,146.0976:144.0819:134.0976|146.0976:264.124:144.0818|146.0975:144.0819|146.0976:144.0819|144.0819:146.0975:129.058|144.0819:129.0583:146.0973|144.0819:129.0584:146.0974|146.0976:264.1237:144.0817|146.0976:144.0817|146.0975:144.0819|144.0818:146.0974|144.0818:129.0584:146.0974|144.0817:129.0583|146.0976:134.0972:144.0815,264.12385;146.0975;144.08185;134.0974;129.0583,Eawag
stpQQR752,Acetochlor ESA|2-[(Ethoxymethyl)(2-ethyl-6-methylphenyl)amino]-2-oxoethanesulfonic acid,S(=O)(=O)(O)CC(=O)N(-c(c(cc1)C)c(c1)CC)COCC,315.114,C14H21NO5S,"InChI=1S/C14H21NO5S/c1-4-12-8-6-7-11(3)14(12)15(10-20-5-2)13(16)9-21(17,18)19/h6-8H,4-5,9-10H2,1-3H3,(H,17,18,19)",CAS_RN: 187022-11-3,6426848,HXAIQOCRALNGKB-UHFFFAOYSA-N,4932268,DTXSID6037483,Positive/Negative,AU203001|AU203002|AU203003,[M+H]+,CID10|CID20|CID30,270.0801:148.1127|148.1127:270.0793:188.1064|148.1106:133.088:120.0803,270.0797;188.1064;148.1127;133.088;120.0803,Athens_Univ,EA010351|EA010352|EA010353|EA010354|EA010355|EA010356|EA010357|EA010358|EA010359|EA010360|EA010361|EA010362|EA010363|EA010364,[M-H]-,CID35|HCD15|HCD30|HCD45|HCD60|HCD75|HCD90|HCD15|HCD30|HCD45|HCD60|HCD75|HCD90|CID35,120.9601:162.0924:146.0975|314.1067|314.1066:120.96:79.9572|79.9573:120.96:314.1064|79.9573:120.9601:76.9702|79.9573:76.9702:144.0817|79.9573:76.9702:144.0818|314.1066|314.1066:120.9601:79.9572|79.9573:314.1062:120.9599|79.9573:120.9601:76.9701|79.9573:76.9701:144.0817|79.9573:76.9702:144.0818|120.96:162.0923:146.0973,314.1066;162.09235;146.0974;144.08175;120.96005;79.9573;76.9702,Eawag
stpQQR753,Acetochlor|2-chloranyl-N-(ethoxymethyl)-N-(2-ethyl-6-methyl-phenyl)ethanamide,CCOCN(C(=O)CCl)C1=C(C)C=CC=C1CC,269.1177,C14H20ClNO2,"InChI=1S/C14H20ClNO2/c1-4-12-8-6-7-11(3)14(12)16(10-18-5-2)13(17)9-15/h6-8H,4-5,9-10H2,1-3H3",CAS_RN: 34256-82-1,1988,VTNQPKFIQCLBDU-UHFFFAOYSA-N,1911,DTXSID8023848,Positive,AU322101|AU322102|AU322103|AU322104|AU322105;SM848201;EA010401|EA010402|EA010403|EA010404|EA010405|EA010406|EA010407|EA010408|EA010409|EA010410|EA010411|EA010412|EA010413|EA010414,[M+H]+;[M+H]+;[M+H]+,CID10|CID20|CID30|CID40|CID50;HCD35;CID35|HCD15|HCD30|HCD45|HCD60|HCD75|HCD90|HCD15|HCD30|HCD45|HCD60|HCD75|HCD90|CID35,224.0828:226.0801:270.125|148.1111:224.0828:226.0801|148.1112:133.0878:132.0799|133.0878:148.1111:134.0909|133.0876:134.091:148.1115;224.0837:148.1121:59.0493;224.0838:148.1119:210.0681|224.0838:270.1255:148.1121|224.0835:148.112:194.0728|148.1121:224.0836:149.0959|148.112:133.0885:149.0962|133.0885:148.112:132.0807|133.0886:132.0806:148.112|224.0836:270.1254:148.112|224.0836:148.1121:210.0679|148.112:224.0837:149.096|148.112:133.0885:149.0961|133.0885:148.112:132.081|133.0885:132.0808:148.112|224.0837:148.112:210.068,226.0801;224.0836;210.068;194.0728;149.09605;148.112;134.09095;133.0885;132.0807;59.0493,Athens_Univ;CASMI_2016;Eawag,NA,NA,NA,NA,NA,NA
stpQQR754,"Amitraz|N'-(2,4-dimethylphenyl)-N-[(2,4-dimethylphenyl)iminomethyl]-N-methyl-formamidine",c1(c(cc(C)cc1)C)\N=C\N(\C=N\c1c(cc(C)cc1)C)C,293.1892,C19H23N3,"InChI=1S/C19H23N3/c1-14-6-8-18(16(3)10-14)20-12-22(5)13-21-19-9-7-15(2)11-17(19)4/h6-13H,1-5H3",CAS_RN: 33089-61-1,36324,QXAITBQSYVNQDR-ZIOPAAQOSA-N,33405,DTXSID5023871,Positive,EA010701|EA010702|EA010703|EA010704|EA010705|EA010706|EA010707|EA010708|EA010709|EA010710|EA010711|EA010712|EA010713|EA010714,[M+H]+,CID35|HCD15|HCD30|HCD45|HCD60|HCD75|HCD90|HCD15|HCD30|HCD45|HCD60|HCD75|HCD90|CID35,163.1229:253.1697|163.1228:294.1963:253.1695|163.123:253.1701|163.1229:253.1695:122.0965|163.1228:122.0964:132.0806|122.0964:163.1228:132.0807|107.0728:122.0964:105.0698|163.1229:294.1963:253.1698|163.123:253.1696|163.1229:122.0964:253.1698|163.1229:122.0964:132.0806|122.0963:163.1228:107.0729|107.0729:105.0698:122.0964|163.123:253.1697,253.1697;163.1229;132.0806;122.0964;107.0729;105.0698,Eawag,NA,NA,NA,NA,NA,NA
stpQQR755,Cymoxanil|2-(ethylcarbamoylamino)-N-methoxy-2-oxoethanimidoyl cyanide,CCNC(=O)NC(=O)/C(=N/OC)/C#N,198.0753,C7H10N4O3,"InChI=1S/C7H10N4O3/c1-3-9-7(13)10-6(12)5(4-8)11-14-2/h3H2,1-2H3,(H2,9,10,12,13)/b11-5+",CAS_RN: 57966-95-7,42614,XERJKGMBORTKEO-VZUCSPMQSA-N,38865,DTXSID6032358,Positive,EA011201|EA011202|EA011203|EA011204|EA011205|EA011206|EA011207|EA011208|EA011209|EA011210|EA011211|EA011212|EA011213|EA011214,[M+H]+,CID35|HCD15|HCD30|HCD45|HCD60|HCD75|HCD90|HCD15|HCD30|HCD45|HCD60|HCD75|HCD90|CID35,128.0455:111.0189:58.0288|128.0454:111.0189:58.0288|128.0454:111.019:83.0241|128.0454:111.0189:83.0241|83.024:111.0189:128.0455|83.0241:111.019:53.0134|83.0241:53.0134:111.0189|128.0453:111.0189:58.0287|128.0454:111.0189:83.024|128.0454:111.0189:83.024|83.024:111.0189:128.0454|83.024:111.0189:53.0134|83.024:53.0134:111.0188|128.0454:111.019:167.0675,167.0675;128.0454;111.0189;83.024;58.0288;53.0134,Eawag,NA,NA,NA,NA,NA,NA
stpQQR756,"Diflufenican|N-(2,4-difluorophenyl)-2-[3-(trifluoromethyl)phenoxy]-3-pyridinecarboxamide",FC1=CC=C(NC(=O)C2=C(OC3=CC=CC(=C3)C(F)(F)F)N=CC=C2)C(F)=C1,394.0735,C19H11F5N2O2,"InChI=1S/C19H11F5N2O2/c20-12-6-7-16(15(21)10-12)26-17(27)14-5-2-8-25-18(14)28-13-4-1-3-11(9-13)19(22,23)24/h1-10H,(H,26,27)",CAS_RN: 83164-33-4,91735,WYEHFWKAOXOVJD-UHFFFAOYSA-N,82834,DTXSID4041494,Positive/Negative,SM838403;EA011601|EA011602|EA011603|EA011604|EA011605|EA011606|EA011607|EA011608|EA011609|EA011610|EA011611|EA011612|EA011613|EA011614;UF401001|UF401002|UF401003|UF401004,[M+H]+;[M+H]+;[M+H]+,HCD35;CID35|HCD15|HCD30|HCD45|HCD60|HCD75|HCD90|HCD15|HCD30|HCD45|HCD60|HCD75|HCD90|CID35;HCD55|HCD80|CID35|CID55,266.0423:395.0815:246.0361;266.0421:375.0746:246.0359|395.0812|266.042:395.0807:375.0753|266.042:246.0357:233.0525|266.0419:246.0355:238.0469|238.0471:218.041:183.0417|218.0406:169.0523:190.046|395.0807:219.0477|266.042:395.0808:375.0741|266.0421:246.0358:233.0518|266.0419:238.0473:246.0358|238.0473:218.0411:266.0421|218.0411:183.0417:169.0522|266.0422:375.0745:246.0358;266.0425:246.0363:238.0476|218.0412:238.0475:183.0416|266.0423:375.0751:246.0362|266.0424:375.0753:246.0364,375.07485;266.0421;246.03585;238.0473;233.05215;219.0477;218.0411;190.046;183.0417;169.05225,CASMI_2016;Eawag;UFZ,UF401053|UF401054,[M-H]-,CID35|CID55,329.0707:373.0602:353.0544|329.0708:373.0603:353.0547,373.06025;353.05455;329.07075,UFZ
stpQQR757,"Ethofumesate|(2-ethoxy-3,3-dimethyl-2H-1-benzofuran-5-yl) methanesulfonate",S(=O)(=O)(C)O-c(ccc1O2)cc1C(C2OCC)(C)C,286.0869,C13H18O5S1,"InChI=1S/C13H18O5S/c1-5-16-12-13(2,3)10-8-9(18-19(4,14)15)6-7-11(10)17-12/h6-8,12H,5H2,1-4H3",CAS_RN: 26225-79-6,33360,IRCMYGHHKLLGHV-UHFFFAOYSA-N,30816,DTXSID8034580,Positive,SM840003;EA011701|EA011702|EA011703|EA011704|EA011705|EA011706|EA011707|EA011708|EA011709|EA011710|EA011711|EA011712|EA011713|EA011714;UF401601|UF401602|UF401603|UF401604,[M+H]+;[M+H]+;[M+H]+,HCD35;CID35|HCD15|HCD30|HCD45|HCD60|HCD75|HCD90|HCD15|HCD30|HCD45|HCD60|HCD75|HCD90|CID35;HCD55|HCD80|CID35|CID55,121.0648:161.0597:122.0682;259.0638:241.0531:121.0649|259.0636:287.0948:121.0649|121.065:259.0637:161.0599|121.0649:161.0598:162.0676|121.0648:161.0597:133.0648|121.0649:105.07:133.065|105.0699:103.0543:91.0543|259.0636:287.0947:121.0649|121.0649:259.0636:161.0599|121.0649:161.0598:162.0676|121.0649:161.0598:133.0649|121.0649:105.0699:133.0648|105.0699:103.0543:91.0543|259.0636:241.053:121.0649;121.0647:161.0597:133.0648|105.0698:121.0647:103.0542|259.0636:241.053:121.0648|259.0636:121.0648:241.0531,259.0636;241.05305;162.0676;161.0598;133.0648;122.0682;121.0649;105.0699;103.0543;91.0543,CASMI_2016;Eawag;UFZ,NA,NA,NA,NA,NA,NA
stpQQR758,"Ethofumesate-2-keto|3,3-Dimethyl-2-oxo-2,3-dihydrobenzofurane-5-yl methane sulfonate",CS(=O)(=O)Oc1cc2c(cc1)OC(=O)C2(C)C,256.0405,C11H12O5S,"InChI=1S/C11H12O5S/c1-11(2)8-6-7(16-17(3,13)14)4-5-9(8)15-10(11)12/h4-6H,1-3H3",CAS_RN: NA,590774,CXWYCAYNZXSHTF-UHFFFAOYSA-N,513569,DTXSID90343594,Positive,EA011801|EA011802|EA011803|EA011804|EA011805|EA011806|EA011807|EA011808|EA011809|EA011810|EA011811|EA011812|EA011813|EA011814,[M+H]+,CID35|HCD15|HCD30|HCD45|HCD60|HCD75|HCD90|HCD15|HCD30|HCD45|HCD60|HCD75|HCD90|CID35,177.0549:229.053:178.0626|257.0482:177.055:178.0617|257.0478:177.0546:229.0527|177.0547:201.0216:229.0528|177.0547:149.0597:201.0216|149.0598:123.044:121.0648|103.0543:79.0543:77.0386|257.0479:177.0544:229.052|257.0476:177.0546:229.0528|177.0545:201.0215:178.0624|177.0544:149.0596:201.0215|149.0596:123.0441:121.0648|103.0542:79.0542:123.044|177.0546:229.0527:178.0623,229.05275;201.02155;178.06235;177.0546;149.05965;123.044;121.0648;103.05425;79.05425;77.0386,Eawag,NA,NA,NA,NA,NA,NA
stpQQR759,"Fluazinam|3-chloranyl-N-[3-chloranyl-2,6-dinitro-4-(trifluoromethyl)phenyl]-5-(trifluoromethyl)pyridin-2-amine",n1cc(C(F)(F)F)cc(Cl)c1Nc1c([N+]([O-])=O)c(Cl)c(C(F)(F)F)cc1[N+]([O-])=O,463.9514,C13H4Cl2F6N4O4,"InChI=1S/C13H4Cl2F6N4O4/c14-6-1-4(12(16,17)18)3-22-11(6)23-9-7(24(26)27)2-5(13(19,20)21)8(15)10(9)25(28)29/h1-3H,(H,22,23)",CAS_RN: 79622-59-6,91731,UZCGKGPEKUCDTF-UHFFFAOYSA-N,82831,DTXSID7032551,Negative,NA,NA,NA,NA,NA,NA,EA011951|EA011952|EA011953|EA011954|EA011955|EA011956|EA011958|EA011959|EA011960|EA011961|EA011962|EA011963|EA011964,[M-H]-,CID35|HCD15|HCD30|HCD45|HCD60|HCD75|HCD15|HCD30|HCD45|HCD60|HCD75|HCD90|CID35,397.9771:415.9431:386.9529|462.9447:397.9776:415.9442|415.9442:397.978|415.9433|334.9807|334.9817|462.9443:397.9772:415.9438|415.9429:397.9771|415.9432:386.9539:369.9513|334.9817|334.981|397.9788|397.977:415.943:386.953,462.9445;415.94325;397.9772;386.953;369.9513;334.98135,Eawag
stpQQR760,"Napropamid|N,N-diethyl-2-(1-naphthalenyloxy)propanamide",CCN(CC)C(=O)C(C)OC1=CC=CC2=CC=CC=C21,271.1567,C17H21NO2,"InChI=1S/C17H21NO2/c1-4-18(5-2)17(19)13(3)20-16-12-8-10-14-9-6-7-11-15(14)16/h6-13H,4-5H2,1-3H3",CAS_RN: 15299-99-7,27189,WXZVAROIGSFCFJ-UHFFFAOYSA-N,25304,DTXSID5024211,Positive,AU357301|AU357302|AU357303|AU357304|AU357305;EA012001|EA012002|EA012003|EA012004|EA012005|EA012006|EA012007|EA012008|EA012009|EA012010|EA012011|EA012012|EA012013|EA012014,[M+H]+;[M+H]+,CID10|CID20|CID40|CID40|CID50;CID35|HCD15|HCD30|HCD45|HCD60|HCD75|HCD90|HCD15|HCD30|HCD45|HCD60|HCD75|HCD90|CID35,272.1643:199.0746:273.1675|171.0797:129.114:199.0746|171.0796:129.1139:143.0844|171.0797:143.0847:153.0686|128.0611:153.0681:127.0533;199.0756:171.0806:128.107|272.1646:199.0755:74.0964|129.1149:171.0805:199.0753|171.0806:129.1149:58.0651|171.0805:58.0651:72.0808|58.0651:72.0808:171.0804|58.0651:128.062:72.0807|272.1645:199.0753:74.0964|129.1148:171.0805:199.0755|171.0805:129.1148:58.0651|171.0805:58.0651:72.0808|58.0651:72.0808:171.0804|58.0651:128.0621:72.0808|199.0754:171.0805:128.107,199.07535;171.0805;153.06835;143.08455;129.1148;128.107;128.062;127.0533;74.0964;72.0808;58.0651,Athens_Univ;Eawag,NA,NA,NA,NA,NA,NA
stpQQR761,Propaquizafop|2-(propan-2-ylideneamino)oxyethyl 2-[4-(6-chloranylquinoxalin-2-yl)oxyphenoxy]propanoate,CC(C(=O)OCCON=C(C)C)OC1=CC=C(C=C1)OC2=CN=C3C=C(C=CC3=N2)Cl,443.1242,C22H22ClN3O5,"InChI=1S/C22H22ClN3O5/c1-14(2)26-29-11-10-28-22(27)15(3)30-17-5-7-18(8-6-17)31-21-13-24-20-12-16(23)4-9-19(20)25-21/h4-9,12-13,15H,10-11H2,1-3H3",CAS_RN: 111479-05-1,86122,FROBCXTULYFHEJ-UHFFFAOYSA-N,77697,NA,Positive,EA012201|EA012202|EA012203|EA012204|EA012205|EA012206|EA012207|EA012208|EA012209|EA012210|EA012211|EA012212|EA012213|EA012214,[M+H]+,CID35|HCD15|HCD30|HCD45|HCD60|HCD75|HCD90|HCD15|HCD30|HCD45|HCD60|HCD75|HCD90|CID35,371.0784:299.0581:144.1014|444.1311:100.0756:371.0786|100.0757:299.0578:56.0494|100.0757:299.0577:56.0494|70.0651:100.0757:56.0494|70.0651:56.0494:163.0058|70.065:192.068:163.0056|444.1312:100.0757:371.0788|100.0757:299.0579:56.0494|100.0757:299.0578:56.0494|100.0757:70.0651:255.0317|70.0651:56.0494:163.0056|70.0651:163.0057:192.0681|371.0787:299.0578:144.1017,371.07865;299.0578;255.0317;192.06805;163.00565;144.10155;100.0757;70.0651;56.0494,Eawag,NA,NA,NA,NA,NA,NA
stpQQR762,"Trifluralin|2,6-dinitro-N,N-dipropyl-4-(trifluoromethyl)aniline",[O-][N+](=O)c1cc(cc([N+]([O-])=O)c1N(CCC)CCC)C(F)(F)F,335.1093,C13H16F3N3O4,"InChI=1S/C13H16F3N3O4/c1-3-5-17(6-4-2)12-10(18(20)21)7-9(13(14,15)16)8-11(12)19(22)23/h7-8H,3-6H2,1-2H3",CAS_RN: 1582-09-8,5569,ZSDSQXJSNMTJDA-UHFFFAOYSA-N,5368,DTXSID4021395,Positive,EA012302|EA012308,[M+H]+,HCD15|HCD15,336.117|336.117,,Eawag,NA,NA,NA,NA,NA,NA