NORMAN_ID,NAME,SMILES,NEUTRAL_EXACT_MASS,FORMULA,StdInChI,CAS_RN,PUBCHEM_CID,InChIKey,CHEMSPIDER_ID,DTXSID,Preferable Ionization,MB_Records Positive Ionization,Adduct Positive Ionization,Ionisation type and collision energy Positive Ionization,Fragments Positive Ionization,Simplified_fragments_Positive,Institute Positive Ionization,MB_Records Negative Ionization,Adduct Negative Ionization,Ionisation type and collision energy Negative Ionization,Fragments Negative Ionization,Simplified_fragments_Negative,Institute Negative Ionization
stpQQR201,"Tribenzylamine|N,N-dibenzyl-1-phenylmethanamine",C(N(CC1=CC=CC=C1)CC1=CC=CC=C1)C1=CC=CC=C1,287.1674,C21H21N,"InChI=1S/C21H21N/c1-4-10-19(11-5-1)16-22(17-20-12-6-2-7-13-20)18-21-14-8-3-9-15-21/h1-15H,16-18H2",CAS_RN: 620-40-6,24321,MXHTZQSKTCCMFG-UHFFFAOYSA-N,22739,DTXSID5047031,Positive,SM837601,[M+H]+,HCD35,91.0542:288.1746:181.101,181.101;91.0542,CASMI_2016,NA,NA,NA,NA,NA,NA
stpQQR202,"2,4-Dichlorophenoxyacetic acid|2-(2,4-dichlorophenoxy)acetic acid",OC(=O)COc1ccc(Cl)cc1Cl,219.9694,C8H6Cl2O3,"InChI=1S/C8H6Cl2O3/c9-5-1-2-7(6(10)3-5)13-4-8(11)12/h1-3H,4H2,(H,11,12)",CAS_RN: 94-75-7,1486,OVSKIKFHRZPJSS-UHFFFAOYSA-N,1441,DTXSID0020442,Negative,NA,NA,NA,NA,NA,NA,SM837851;EA026751|EA026752|EA026753|EA026754|EA026755|EA026756|EA026757|EA026758|EA026759|EA026760|EA026761|EA026762|EA026763|EA026764,[M-H]-;[M-H]-,HCD35;CID35|HCD15|HCD30|HCD45|HCD60|HCD75|HCD90|HCD15|HCD30|HCD45|HCD60|HCD75|HCD90|CID35,160.9566:124.9795:218.9621;160.9569:174.9725|160.9569:218.9622:174.973|160.9568|160.9569:124.9798|160.9568:124.98:89.0032|160.9568:124.9799:89.0034|160.9567:124.9799:89.0033|160.9568:218.9621:174.9721|160.9569:218.962|160.9568:124.98|160.9568:124.98|160.9567:124.9799:89.0032|160.9566:124.9798:89.0032|160.9569:174.9721,218.9621;174.9723;160.9568;124.9799;89.0032,CASMI_2016;Eawag
stpQQR203,Dimethoate|2-dimethoxyphosphinothioylsulfanyl-N-methylacetamide,CNC(=O)CSP(=S)(OC)OC,228.99962,C5H12NO3PS2,"InChI=1S/C5H12NO3PS2/c1-6-5(7)4-12-10(11,8-2)9-3/h4H2,1-3H3,(H,6,7)",CAS_RN: 60-51-5,3082,MCWXGJITAZMZEV-UHFFFAOYSA-N,2973,DTXSID7020479,Positive,AU300901|AU300902|AU300903|AU300904|AU300905;SM837901;EA276101|EA276102|EA276103|EA276104|EA276105|EA276106|EA276107|EA276108|EA276109|EA276110|EA276111|EA276112|EA276113|EA276114;UF400301|UF400302|UF400303|UF400304,[M+H]+;[M+H]+;[M+H]+;[M+H]+,CID10|CID20|CID30|CID40|CID50;HCD35;CID35|HCD15|HCD30|HCD45|HCD60|HCD75|HCD90|HCD15|HCD30|HCD45|HCD60|HCD75|HCD90|CID35;HCD55|HCD80|CID35|CID55,198.9657:230.0081:170.9703|124.9823:170.9703:142.9929|124.9823:142.993:156.9542|124.9822:142.9927:156.9543|124.9823:142.9929:123.9979;142.9926:198.9647:170.9698;198.9648:170.9698:197.9811|198.9646:170.9697:230.0067|170.9697:198.9646:124.982|124.9821:142.9926:170.9698|124.982:142.9926:156.9541|124.982:142.9926:78.9944|124.982:142.9926:78.9943|198.9647:170.9698:230.0068|170.9698:198.9647:124.9821|124.9821:142.9926:170.9698|124.9821:142.9926:156.9541|124.982:142.9926:78.9943|124.982:142.9925:78.9943|198.9648:170.9698:197.9807;124.9819:142.9925:170.9697|124.9819:142.9925:78.9943|198.9646:170.9697:88.0214|198.9645:170.9697:88.0214,198.9647;197.9809;170.9698;156.95415;142.9926;124.98205;123.9979;88.0214;78.9943,Athens_Univ;CASMI_2016;Eawag;UFZ,NA,NA,NA,NA,NA,NA
stpQQR204,"Bentazone|Bentazon|2,2-dioxo-3-propan-2-yl-1H-2$l^{6},1,3-benzothiadiazin-4-one",CC(C)N1C(=O)c2ccccc2NS1(=O)=O,240.05686,C10H12N2O3S,"InChI=1S/C10H12N2O3S/c1-7(2)12-10(13)8-5-3-4-6-9(8)11-16(12,14)15/h3-7,11H,1-2H3",CAS_RN: 605-43-6,2328,ZOMSMJKLGFBRBS-UHFFFAOYSA-N,2238,DTXSID0023901,Positive/Negative,EA025301|EA025302|EA025303|EA025304|EA025305|EA025306|EA025307|EA025308|EA025309|EA025310|EA025311|EA025312|EA025313|EA025314,[M+H]+,CID35|HCD15|HCD30|HCD45|HCD60|HCD75|HCD90|HCD15|HCD30|HCD45|HCD60|HCD75|HCD90|CID35,199.0173|199.0172|199.0171:135.0549:120.0448|199.0172:135.0554:120.0444|107.0604:135.0554:120.0444|107.0603:120.0441:92.0492|107.0603:80.0495:120.044|199.0171|199.0171:120.0443|199.0171:135.0554:107.0603|107.0603:120.0443:135.0551|107.0604:120.0444:80.0495|107.0603:80.0494:120.0442|199.0171,199.0171;135.0554;120.0443;107.0603;92.0492;80.0495,Eawag,AU325851|AU325852|AU325853|AU325854;SM838051;EA025351|EA025352|EA025353|EA025354|EA025355|EA025356|EA025357|EA025358|EA025359|EA025360|EA025361|EA025362|EA025363|EA025364,[M-H]-;[M-H]-;[M-H]-,CID10|CID20|CID30|CID40;HCD35;CID35|HCD15|HCD30|HCD45|HCD60|HCD75|HCD90|HCD15|HCD30|HCD45|HCD60|HCD75|HCD90|CID35,239.0502:240.0525:241.0471|239.0503:175.0874:132.033|132.0324:133.0392:197.0044|132.0321:133.041;239.0495:132.0327:197.0026;197.0029:175.088:132.033|239.0497|239.0497:175.0878:197.0033|239.0496:175.0878:197.0027|132.0329:133.0407:197.0027|132.0329:133.0407:197.0029|132.0329:133.0406:117.046|239.0496|239.0498:175.0877:197.0023|239.0496:175.0877:197.0026|132.0329:197.0027:133.0407|132.0329:133.0407:197.0026|132.0328:133.0405:117.0455|197.0029:175.088:132.033,239.0497;197.0027;175.0878;133.0407;132.0329;117.04575,Athens_Univ;CASMI_2016;Eawag
stpQQR205,"Isoproturon|1,1-dimethyl-3-(4-propan-2-ylphenyl)urea",CC(C)c1ccc(NC(=O)N(C)C)cc1,206.14191,C12H18N2O,"InChI=1S/C12H18N2O/c1-9(2)10-5-7-11(8-6-10)13-12(15)14(3)4/h5-9H,1-4H3,(H,13,15)",CAS_RN: 34123-59-6,36679,PUIYMUZLKQOUOZ-UHFFFAOYSA-N,33695,DTXSID1042077,Positive,AU351801|AU351802|AU351803|AU351804|AU351805;SM838102;EA028601|EA028602|EA028603|EA028604|EA028605|EA028606|EA028607|EA028608|EA028609|EA028610|EA028611|EA028612|EA028613|EA028614;UF400501|UF400502|UF400503|UF400504,[M+H]+;[M+H]+;[M+H]+;[M+H]+,CID10|CID20|CID30|CID40|CID50;HCD35;CID35|HCD15|HCD30|HCD45|HCD60|HCD75|HCD90|HCD15|HCD30|HCD45|HCD60|HCD75|HCD90|CID35;HCD55|HCD80|CID35|CID55,207.1486:208.1516:165.1011|207.1486:165.1013:134.0955|134.0957:165.1014:162.0891|134.0954:119.0721:118.0638|118.0649:119.0706:134.0958;72.0444:207.1492:165.1023;72.0444:165.1023:207.1495|207.1491:72.0442:165.1017|207.1491:72.0443:165.1021|72.0444:207.1487:165.1022|72.0444:165.1021:134.0963|72.0444:134.0964:91.0543|72.0444:134.0964:91.0542|207.1491:72.0443:165.102|207.1491:72.0443:165.1021|72.0444:207.1492:165.1022|72.0444:165.1022:134.0963|72.0444:134.0963:91.0541|72.0444:134.0963:91.0542|72.0444:165.1022:207.149;72.0442:165.1022:134.0963|72.0442:134.0963:107.0854|72.0442:165.1021:162.0912|72.0442:165.102:162.0912,165.1021;162.0912;134.0963;119.07135;118.06435;107.0854;91.0542;72.0444,Athens_Univ;CASMI_2016;Eawag;UFZ,NA,NA,NA,NA,NA,NA
stpQQR206,"Chlorotoluron|3-(3-chloro-4-methylphenyl)-1,1-dimethylurea",CN(C)C(=O)Nc1ccc(C)c(Cl)c1,212.07164,C10H13ClN2O,"InChI=1S/C10H13ClN2O/c1-7-4-5-8(6-9(7)11)12-10(14)13(2)3/h4-6H,1-3H3,(H,12,14)",CAS_RN: 15545-48-9,27375,JXCGFZXSOMJFOA-UHFFFAOYSA-N,25472,DTXSID8052853,Positive,SM838201;EA027301|EA027302|EA027303|EA027304|EA027305|EA027306|EA027307|EA027308|EA027309|EA027310|EA027311|EA027312|EA027313|EA027314;UF400701|UF400702|UF400703|UF400704,[M+H]+;[M+H]+;[M+H]+,HCD35;CID35|HCD15|HCD30|HCD45|HCD60|HCD75|HCD90|HCD15|HCD30|HCD45|HCD60|HCD75|HCD90|CID35;HCD55|HCD80|CID35|CID55,72.0444:213.0789:140.0261;72.0444:168.0213|213.0791:72.0443|213.0793:72.0445:168.0209|72.0444:213.0783:168.021|72.0445:140.0263:168.0211|72.0444:140.0261:125.0151|72.0444:140.0261:125.0152|213.0791:72.0443|213.0791:72.0444:168.0211|72.0444:213.0788:168.0211|72.0444:140.0261:168.021|72.0445:140.0262:125.0153|72.0444:140.0262:125.0152|72.0444:213.0786:168.0212;72.0442:140.0261:168.0209|72.0442:140.0261:125.0152|72.0442:213.0786:168.0209|72.0442:168.021,168.021;140.0261;125.0152;72.0444,CASMI_2016;Eawag;UFZ,NA,NA,NA,NA,NA,NA
stpQQR207,"Myclobutanil|2-(4-chlorophenyl)-2-(1,2,4-triazol-1-ylmethyl)hexanenitrile",CCCCC(Cn1cncn1)(C#N)c1ccc(Cl)cc1,288.11417,C15H17ClN4,"InChI=1S/C15H17ClN4/c1-2-3-8-15(9-17,10-20-12-18-11-19-20)13-4-6-14(16)7-5-13/h4-7,11-12H,2-3,8,10H2,1H3",CAS_RN: 88671-89-0,6336,HZJKXKUJVSEEFU-UHFFFAOYSA-N,6096,DTXSID8024315,Positive,SM838301;EA295701|EA295702|EA295703|EA295704|EA295705|EA295706|EA295707|EA295708|EA295709|EA295710|EA295711|EA295712|EA295713|EA295714,[M+H]+;[M+H]+,HCD35;CID35|HCD15|HCD30|HCD45|HCD60|HCD75|HCD90|HCD15|HCD30|HCD45|HCD60|HCD75|HCD90|CID35,70.04:289.1215:125.0153;220.0889:125.0153:203.0623|289.1218:70.04:220.0898|289.1218:70.0401:125.0153|70.04:125.0153:151.031|125.0153:70.04:151.031|125.0153:70.04:151.031|125.0153:70.04:116.0622|289.1215:70.04|289.1215:70.04:125.0152|70.04:125.0153:151.0309|125.0153:70.04:151.0309|125.0153:70.04:151.0309|125.0153:70.04:116.0621|220.0887:125.0153:203.0622,220.0889;203.06225;151.03095;125.0153;116.06215;70.04,CASMI_2016;Eawag,NA,NA,NA,NA,NA,NA
stpQQR208,"Diflufenican|N-(2,4-difluorophenyl)-2-[3-(trifluoromethyl)phenoxy]pyridine-3-carboxamide",Fc1ccc(NC(=O)c2cccnc2Oc2cccc(c2)C(F)(F)F)c(F)c1,394.07407,C19H11F5N2O2,"InChI=1S/C19H11F5N2O2/c20-12-6-7-16(15(21)10-12)26-17(27)14-5-2-8-25-18(14)28-13-4-1-3-11(9-13)19(22,23)24/h1-10H,(H,26,27)",CAS_RN: 83164-33-4,91735,WYEHFWKAOXOVJD-UHFFFAOYSA-N,82834,DTXSID4041494,Positive/Negative,SM838403;EA011601|EA011602|EA011603|EA011604|EA011605|EA011606|EA011607|EA011608|EA011609|EA011610|EA011611|EA011612|EA011613|EA011614;UF401001|UF401002|UF401003|UF401004,[M+H]+;[M+H]+;[M+H]+,HCD35;CID35|HCD15|HCD30|HCD45|HCD60|HCD75|HCD90|HCD15|HCD30|HCD45|HCD60|HCD75|HCD90|CID35;HCD55|HCD80|CID35|CID55,266.0423:395.0815:246.0361;266.0421:375.0746:246.0359|395.0812|266.042:395.0807:375.0753|266.042:246.0357:233.0525|266.0419:246.0355:238.0469|238.0471:218.041:183.0417|218.0406:169.0523:190.046|395.0807:219.0477|266.042:395.0808:375.0741|266.0421:246.0358:233.0518|266.0419:238.0473:246.0358|238.0473:218.0411:266.0421|218.0411:183.0417:169.0522|266.0422:375.0745:246.0358;266.0425:246.0363:238.0476|218.0412:238.0475:183.0416|266.0423:375.0751:246.0362|266.0424:375.0753:246.0364,375.07485;266.0421;246.03585;238.0473;233.05215;219.0477;218.0411;190.046;183.0417;169.05225,CASMI_2016;Eawag;UFZ,UF401053|UF401054,[M-H]-,CID35|CID55,329.0707:373.0602:353.0544|329.0708:373.0603:353.0547,373.06025;353.05455;329.07075,UFZ
stpQQR209,"Flusilazole|bis(4-fluorophenyl)-methyl-(1,2,4-triazol-1-ylmethyl)silane",C[Si](Cn1cncn1)(c1ccc(F)cc1)c1ccc(F)cc1,315.10033,C16H15F2N3Si,"InChI=1S/C16H15F2N3Si/c1-22(12-21-11-19-10-20-21,15-6-2-13(17)3-7-15)16-8-4-14(18)5-9-16/h2-11H,12H2,1H3",CAS_RN: 85509-19-9,73675,FQKUGOMFVDPBIZ-UHFFFAOYSA-N,66326,DTXSID3024235,Positive,SM838502;EA009701|EA009702|EA009703|EA009704|EA009705|EA009706|EA009707|EA009708|EA009709|EA009710|EA009711|EA009712|EA009713|EA009714;UF401101|UF401102|UF401103|UF401104,[M+H]+;[M+H]+;[M+H]+,HCD35;CID35|HCD15|HCD30|HCD45|HCD60|HCD75|HCD90|HCD15|HCD30|HCD45|HCD60|HCD75|HCD90|CID35;HCD55|HCD80|CID35|CID55,316.1077:165.0699:185.0761;247.075:169.048:165.0699|316.1074|316.1073:169.0479:247.0747|165.0699:169.0478:247.0745|165.07:77.0386:185.0761|165.0698:77.0385:219.0431|165.07:109.0448:77.0386|316.1072:169.0477:187.0579|316.1074:169.0479:247.0746|165.0699:169.0478:247.0746|165.0699:77.0386:185.076|165.0698:77.0385:219.0434|165.0698:109.0447:77.0386|247.0748:169.0479:165.0698;165.0698:219.0435:169.0478|165.0699:109.0447:152.0621|247.0749:169.048:165.07|247.0748:169.0479:165.0699,247.07475;219.0434;187.0579;185.0761;169.0479;165.0699;152.0621;109.0447;77.0386,CASMI_2016;Eawag;UFZ,NA,NA,NA,NA,NA,NA
stpQQR210,Trifloxystrobin|methyl (2Z)-2-methoxyimino-2-[2-[[(E)-1-[3-(trifluoromethyl)phenyl]ethylideneamino]oxymethyl]phenyl]acetate,CO\N=C(/C(=O)OC)c1ccccc1CO\N=C(/C)c1cccc(c1)C(F)(F)F,408.12969,C20H19F3N2O4,"InChI=1S/C20H19F3N2O4/c1-13(14-8-6-9-16(11-14)20(21,22)23)24-29-12-15-7-4-5-10-17(15)18(25-28-3)19(26)27-2/h4-11H,12H2,1-3H3/b24-13+,25-18-",CAS_RN: 141517-21-7,9578570,ONCZDRURRATYFI-QTCHDTBASA-N,7852932,NA,Positive,AU371401|AU371402|AU371403|AU371404|AU371405;SM838602;EQ318101|EQ318102|EQ318103|EQ318104|EQ318105|EQ318106,[M+H]+;[M+H]+;[M+H]+,CID10|CID20|CID30|CID40|CID50;HCD35;HCD15|HCD30|HCD45|HCD60|HCD75|HCD90,409.1375:186.0519:206.0806|186.0519:206.0806:132.0796|186.0522:145.0252:206.081|186.052:145.0253:173.0313|145.025:186.0517:173.031;186.0525:206.0811:116.0494;186.0521:206.0808:116.0492|186.052:116.0492:206.0807|186.0521:116.0492:145.0256|145.0256:186.0521:116.0492|145.0256:116.0492:131.0726|145.0256:89.0383:116.0492,206.08075;186.05205;173.03115;145.0256;132.0796;131.0726;116.0492;89.0383,Athens_Univ;CASMI_2016;Eawag,NA,NA,NA,NA,NA,NA
stpQQR211,"Propoxycarbazone|methyl 2-[(4-methyl-5-oxo-3-propoxy-1,2,4-triazole-1-carbonyl)sulfamoyl]benzoate",CCCOC1=NN(C(=O)NS(=O)(=O)C2=CC=CC=C2C(=O)OC)C(=O)N1C,398.08962,C15H18N4O7S,"InChI=1S/C15H18N4O7S/c1-4-9-26-14-16-19(15(22)18(14)2)13(21)17-27(23,24)11-8-6-5-7-10(11)12(20)25-3/h5-8H,4,9H2,1-3H3,(H,17,21)",CAS_RN: 145026-81-9,177355,JTHMVYBOQLDDIY-UHFFFAOYSA-N,154427,DTXSID8037704,Positive/Negative,SM838703;UF401401|UF401402|UF401403|UF401404,[M+H]+;[M+H]+,HCD35;HCD55|HCD80|CID35|CID55,199.006:116.0455:158.0924;116.0454:135.0441:199.0061|116.0454:77.0385:90.0338|367.0707:199.006:158.0923|367.0707:199.0059:158.0924,367.0707;199.006;158.0924;135.0441;116.0454;90.0338;77.0385,CASMI_2016;UFZ,SM838751;UF401451|UF401452|UF401453|UF401454,[M-H]-;[M-H]-,HCD35;HCD55|HCD80|CID35|CID55,113.0221:156.0778:114.0299;199.1373:113.0231|113.0229|156.0778:199.1373:113.023|156.0779:199.1372:113.0231,199.1373;156.0778;114.0299;113.023,CASMI_2016;UFZ
stpQQR212,"Metribuzin|4-amino-6-tert-butyl-3-methylsulfanyl-1,2,4-triazin-5-one",CSC1=NN=C(C(=O)N1N)C(C)(C)C,214.08883,C8H14N4OS,"InChI=1S/C8H14N4OS/c1-8(2,3)5-6(13)12(9)7(14-4)11-10-5/h9H2,1-4H3",CAS_RN: 21087-64-9,30479,FOXFZRUHNHCZPX-UHFFFAOYSA-N,28287,DTXSID6024204,Positive,AU313001|AU313002|AU313003|AU313004|AU313005;SM838801;EA009001|EA009002|EA009003|EA009004|EA009005|EA009006|EA009007|EA009008|EA009009|EA009010|EA009011|EA009012|EA009013|EA009014,[M+H]+;[M+H]+;[M+H]+,CID10|CID20|CID30|CID40|CID50;HCD35;CID35|HCD15|HCD30|HCD45|HCD60|HCD75|HCD90|HCD15|HCD30|HCD45|HCD60|HCD75|HCD90|CID35,215.0956:216.0983:217.0919|215.0956:187.1006:216.0983|187.1:215.095:131.0376|156.0581:131.0378:184.0531|156.0577:141.0357:140.039;215.0961:187.1011:84.0807;187.1012:186.0822:131.0274|215.0963|215.0963:187.1012:186.0819|215.0964:187.1014:186.0823|187.1012:215.0954:131.0386|187.1011:74.0059:131.0386|74.0059:59.9902:58.0399|215.0962:186.0829:187.1006|215.0962:187.1012:186.0821|215.0962:187.1013:186.0822|187.1012:215.0963:131.0386|187.1013:74.006:131.0387|74.0059:59.9902:58.0399|187.1012:186.0822:131.0274,187.1012;186.0822;184.0531;156.0579;141.0357;140.039;131.0386;131.0274;84.0807;74.0059;59.9902;58.0399,Athens_Univ;CASMI_2016;Eawag,NA,NA,NA,NA,NA,NA
stpQQR213,"Prochloraz|N-propyl-N-[2-(2,4,6-trichlorophenoxy)ethyl]imidazole-1-carboxamide",CCCN(CCOc1c(Cl)cc(Cl)cc1Cl)C(=O)n1ccnc1,375.03081,C15H16Cl3N3O2,"InChI=1S/C15H16Cl3N3O2/c1-2-4-20(15(22)21-5-3-19-10-21)6-7-23-14-12(17)8-11(16)9-13(14)18/h3,5,8-10H,2,4,6-7H2,1H3",CAS_RN: 7789-20-0,73665,TVLSRXXIMLFWEO-UHFFFAOYSA-N,66316,DTXSID4024270,Positive,SM838902;EA009601|EA009602|EA009603|EA009604|EA009605|EA009606|EA009607|EA009608|EA009609|EA009610|EA009611|EA009612|EA009613|EA009614;ET200001|ET200002|ET200003|ET200004;UF405803|UF405804,[M+H]+;[M+H]+;[M+H]+;[M+H]+,HCD35;CID35|HCD15|HCD30|HCD45|HCD60|HCD75|HCD90|HCD15|HCD30|HCD45|HCD60|HCD75|HCD90|CID35;HCD20|HCD30|HCD40|HCD60;CID35|CID55,308.0008:70.0288:70.0652;308.0006:265.9532|308.0003:265.9539:376.0397|308.0003:70.0287:265.9533|70.0651:70.0287:222.9479|70.0288:70.0652:194.9163|70.0287:70.0651:166.9215|166.9215:70.0287:132.9605|308.0005:265.9534:376.0376|308.0003:70.0287:265.9535|70.0651:70.0287:222.9478|70.0287:70.0651:194.9164|70.0287:70.0651:166.9216|166.9216:70.0287:132.9606|308.0004:265.9533;308.0007:265.9538:70.0288|308.0007:70.0288:265.9538|70.0288:70.0652:194.9166|70.0288:70.0652:166.9217;282.0213:308.0004:180.1133|282.0212:308.0009:180.1132,308.0005;282.02125;265.95345;222.94785;194.9164;180.11325;166.9216;132.96055;70.0651;70.0287,CASMI_2016;Eawag;Eawag_Additional_Specs;UFZ,NA,NA,NA,NA,NA,NA
stpQQR214,"Dimethenamid|2-chloro-N-(2,4-dimethylthiophen-3-yl)-N-(1-methoxypropan-2-yl)acetamide",COCC(C)N(C(=O)CCl)C1=C(C)SC=C1C,275.07468,C12H18ClNO2S,"InChI=1S/C12H18ClNO2S/c1-8-7-17-10(3)12(8)14(11(15)5-13)9(2)6-16-4/h7,9H,5-6H2,1-4H3",CAS_RN: 87674-68-8,91744,JLYFCTQDENRSOL-UHFFFAOYSA-N,82842,DTXSID20858782,Positive,AU339101|AU339102|AU339103|AU339104|AU339105;SM839002;EA025401|EA025402|EA025403|EA025404|EA025405|EA025406|EA025407|EA025408|EA025409|EA025410|EA025411|EA025412|EA025413|EA025414,[M+H]+;[M+H]+;[M+H]+,CID10|CID20|CID30|CID40|CID50;HCD35;CID35|HCD15|HCD30|HCD45|HCD60|HCD75|HCD90|HCD15|HCD30|HCD45|HCD60|HCD75|HCD90|CID35,244.0556:276.082:246.0522|244.0553:246.0523:168.0829|168.0833:244.0553:246.0523|168.0834:126.0368:152.0522|126.0368:138.0363:168.0831;244.0558:168.0842:276.0821;244.056|244.0558:276.0819:168.0835|244.0559:276.0818:168.0841|244.0559:168.0842:167.0763|168.0843:244.0557:111.0263|168.0843:111.0264:126.0373|111.0263:126.0371:138.0371|244.0557:276.0819|244.0557:276.0825:168.0841|244.0558:168.0842:111.0262|168.0842:244.0558:111.0263|168.0841:111.0263:126.0372|111.0263:126.0372:138.0372|244.0558,246.0523;244.0558;168.0841;167.0763;152.0522;138.0371;126.03715;111.0263,Athens_Univ;CASMI_2016;Eawag,NA,NA,NA,NA,NA,NA
stpQQR215,"Metalaxyl|methyl 2-(N-(2-methoxyacetyl)-2,6-dimethylanilino)propanoate",COCC(=O)N(C(C)C(=O)OC)c1c(C)cccc1C,279.14706,C15H21NO4,"InChI=1S/C15H21NO4/c1-10-7-6-8-11(2)14(10)16(13(17)9-19-4)12(3)15(18)20-5/h6-8,12H,9H2,1-5H3",CAS_RN: 70630-17-0,42586,ZQEIXNIJLIKNTD-UHFFFAOYSA-N,38839,DTXSID6024175,Positive,SM839102;EA013501|EA013502|EA013503|EA013504|EA013505|EA013506|EA013507|EA013508|EA013509|EA013510|EA013511|EA013512|EA013513|EA013514,[M+H]+;[M+H]+,HCD35;CID35|HCD15|HCD30|HCD45|HCD60|HCD75|HCD90|HCD15|HCD30|HCD45|HCD60|HCD75|HCD90|CID35,220.1333:192.1383:160.1121;248.1281:220.1332:192.1383|280.1542:248.1279:220.1332|192.1384:220.1333:160.112|192.1383:160.1121:220.1331|160.112:192.1382:148.112|160.112:134.0963:132.0807|132.0807:134.0964:160.112|280.1544:248.1282:220.1333|192.1384:220.1333:160.1121|192.1383:160.1121:220.133|160.1121:192.1381:148.112|160.1121:134.0964:145.0886|132.0807:134.0963:160.112|248.1282:220.1333:192.1382,248.12815;220.1333;192.1383;160.1121;148.112;145.0886;134.09635;132.0807,CASMI_2016;Eawag,NA,NA,NA,NA,NA,NA
stpQQR216,"Dichlorprop|2-(2,4-dichlorophenoxy)propanoic acid",CC(Oc1ccc(Cl)cc1Cl)C(O)=O,233.98505,C9H8Cl2O3,"InChI=1S/C9H8Cl2O3/c1-5(9(12)13)14-8-3-2-6(10)4-7(8)11/h2-5H,1H3,(H,12,13)",CAS_RN: 120-36-5,8427,MZHCENGPTKEIGP-UHFFFAOYSA-N,8120,DTXSID0020440,Negative,NA,NA,NA,NA,NA,NA,SM839351;EA027051|EA027052|EA027053|EA027054|EA027055|EA027056|EA027057|EA027058|EA027059|EA027060|EA027061|EA027062|EA027063|EA027064,[M-H]-;[M-H]-,HCD35;CID35|HCD15|HCD30|HCD45|HCD60|HCD75|HCD90|HCD15|HCD30|HCD45|HCD60|HCD75|HCD90|CID35,160.9566:124.9795:232.9776;160.9569:188.9882|160.9566:232.9776|160.9567|160.9567:124.9794|160.9567:124.9801:89.0033|160.9566:124.9799:89.0033|160.9565:124.9798:89.0033|160.9566:232.9775|160.9566|160.9567:124.9799|160.9565:124.9798|160.9565:124.9799:89.0033|160.9564:124.98:89.0034|160.9568:188.9878,232.9776;188.988;160.9566;124.9799;89.0033,CASMI_2016;Eawag