NORMAN_ID,NAME,SMILES,NEUTRAL_EXACT_MASS,FORMULA,StdInChI,CAS_RN,PUBCHEM_CID,InChIKey,CHEMSPIDER_ID,DTXSID,Preferable Ionization,MB_Records Positive Ionization,Adduct Positive Ionization,Ionisation type and collision energy Positive Ionization,Fragments Positive Ionization,Simplified_fragments_Positive,Institute Positive Ionization,MB_Records Negative Ionization,Adduct Negative Ionization,Ionisation type and collision energy Negative Ionization,Fragments Negative Ionization,Simplified_fragments_Negative,Institute Negative Ionization
stpQQR559,MEX_280.1544_16.8|N-succinylmexiletine,CC(COc1c(C)cccc1C)NC(=O)CCC(O)=O,279.1471,C15H21NO4,"InChI=1S/C15H21NO4/c1-10-5-4-6-11(2)15(10)20-9-12(3)16-13(17)7-8-14(18)19/h4-6,12H,7-9H2,1-3H3,(H,16,17)(H,18,19)",CAS_RN: NA,NA,VLGUKBMOYDQZNE-UHFFFAOYSA-N,NA,NA,Positive,ET090901|ET090902|ET090903|ET090904|ET090905|ET090906,[M+H]+,HCD15|HCD30|HCD45|HCD60|HCD75|HCD90,158.0813:149.0234:150.0268|158.0813:140.0706:149.0234|140.0706:149.0234:150.0268|58.0652:149.0234:150.0268|58.0652:149.0234:150.0267|58.0652:65.0386:55.0179,158.0813;150.0268;149.0234;140.0706;65.0386;58.0652;55.0179,Eawag_Additional_Specs,NA,NA,NA,NA,NA,NA
stpQQR560,NFL_296.1257_14.5|N-demethylfluoxetine (Norfluoxetine)|(3S)-3-phenyl-3-[4-(trifluoromethyl)phenoxy]propan-1-amine,NCC[C@H](Oc1ccc(cc1)C(F)(F)F)c1ccccc1,295.1184,C16H16F3NO,"InChI=1S/C16H16F3NO/c17-16(18,19)13-6-8-14(9-7-13)21-15(10-11-20)12-4-2-1-3-5-12/h1-9,15H,10-11,20H2/t15-/m0/s1",CAS_RN: 126924-38-7,3058751,WIQRCHMSJFFONW-HNNXBMFYSA-N,2319851,NA,Positive,ET100001|ET100002|ET100003|ET100004|ET100005,[M+H]+,"HCD15, 30, 45, 60, 70 or 90|HCD15, 30, 45, 60, 70 or 90|HCD15, 30, 45, 60, 70 or 90|HCD15, 30, 45, 60, 70 or 90|HCD15, 30, 45, 60, 70 or 90",101.0597:87.044:105.0697|101.0596:87.044:105.0698|87.0441:105.0698:101.0596|87.044:105.0697:101.0595|105.0697:87.0441:91.0541,105.0697;101.0596;91.0541;87.044,Eawag_Additional_Specs,NA,NA,NA,NA,NA,NA
stpQQR561,NPE_227.1543_9.6|N-desmethylpheniramine|N-methyl-3-phenyl-3-pyridin-2-ylpropan-1-amine,CNCCC(C1=CC=CC=C1)C1=NC=CC=C1,226.147,C15H18N2,"InChI=1S/C15H18N2/c1-16-12-10-14(13-7-3-2-4-8-13)15-9-5-6-11-17-15/h2-9,11,14,16H,10,12H2,1H3",CAS_RN: 22272-23-7,161283,GDCVFNAQLOMGMS-UHFFFAOYSA-N,141676,NA,Positive,AU212201|AU212202|AU212203|AU212204|AU212205;EQ342001|EQ342002|EQ342003|EQ342004|EQ342005|EQ342006|EQ342007|EQ342008|EQ342009;ET110001|ET110002|ET110003|ET110004|ET110005,[M+H]+;[M+H]+;[M+H]+,"CID10|CID20|CID30|CID40|CID50;HCD15|HCD30|HCD45|HCD60|HCD75|HCD90|HCD120|HCD150|HCD180;HCD15, 30, 45, 60, 70 or 90|HCD15, 30, 45, 60, 70 or 90|HCD15, 30, 45, 60, 70 or 90|HCD15, 30, 45, 60, 70 or 90|HCD15, 30, 45, 60, 70 or 90",196.1117:227.1538:197.1149|196.112:197.1149:168.0788|196.1117:168.0797:167.0721|167.0721:168.0796:196.1116|167.0721:168.0787:118.0645;196.112:227.1542|196.112:227.1543:195.1044|196.112:168.0807:167.0728|196.112:168.0807:167.0729|168.0807:196.112:167.0729|167.0729:168.0807:91.0542|167.0729:118.065:91.0542|167.0729:166.0651:118.0651|139.0542:166.0651:140.0494;196.1119:167.0724:168.0808|196.112:168.0807:167.0728|196.112:168.0806:167.0729|168.0807:167.073:196.112|167.073:168.0806:91.0542,197.1149;196.112;195.1044;168.0807;167.0729;166.0651;140.0494;139.0542;118.065;91.0542,Athens_Univ;Eawag;Eawag_Additional_Specs,NA,NA,NA,NA,NA,NA
stpQQR562,NPE_325.1547_12.8|N-furmarylnorpheniramine,CN(CCC(C1=CC=CC=C1)C1=NC=CC=C1)C(=O)\C=C\C(O)=O,324.1474,C19H20N2O3,"InChI=1S/C19H20N2O3/c1-21(18(22)10-11-19(23)24)14-12-16(15-7-3-2-4-8-15)17-9-5-6-13-20-17/h2-11,13,16H,12,14H2,1H3,(H,23,24)/b11-10+",CAS_RN: NA,NA,NQGDWANJMZMGLN-ZHACJKMWSA-N,NA,NA,Positive,ET110101|ET110102|ET110103|ET110104|ET110105|ET110106,[M+H]+,HCD15|HCD30|HCD45|HCD60|HCD75|HCD90,325.1544:196.1117|196.1119:325.1544:86.0964|196.1119:168.0807:167.0728|196.112:168.0807:167.0729|168.0807:167.0729:196.1119|167.0729:168.0807:91.0542,196.1119;168.0807;167.0729;91.0542;86.0964,Eawag_Additional_Specs,NA,NA,NA,NA,NA,NA
stpQQR563,NPE_327.1704_12.2|N-succinylnorpheniramine,CN(CCC(C1=CC=CC=C1)C1=NC=CC=C1)C(=O)CCC(O)=O,326.163,C19H22N2O3,"InChI=1S/C19H22N2O3/c1-21(18(22)10-11-19(23)24)14-12-16(15-7-3-2-4-8-15)17-9-5-6-13-20-17/h2-9,13,16H,10-12,14H2,1H3,(H,23,24)",CAS_RN: NA,NA,WVBWTLRAHFVIAJ-UHFFFAOYSA-N,NA,NA,Positive,ET110201|ET110202|ET110203|ET110204|ET110205|ET110206,[M+H]+,HCD15|HCD30|HCD45|HCD60|HCD75|HCD90,327.1701:251:196.1118|196.112:327.1701:227.154|196.1119:168.0806:167.0727|196.112:168.0807:167.0728|168.0807:196.1119:167.0729|167.0729:168.0807:91.0542,251;227.154;196.1119;168.0807;167.07285;91.0542,Eawag_Additional_Specs,NA,NA,NA,NA,NA,NA
stpQQR564,NPE_269.1647_12.5|Norpheniramine acetate|N-methyl-N-(3-phenyl-3-pyridin-2-ylpropyl)acetamide,CN(CCC(C1=CC=CC=C1)C1=NC=CC=C1)C(C)=O,268.1576,C17H20N2O,"InChI=1S/C17H20N2O/c1-14(20)19(2)13-11-16(15-8-4-3-5-9-15)17-10-6-7-12-18-17/h3-10,12,16H,11,13H2,1-2H3",CAS_RN: NA,524050,VLRZUFDFIGKGCN-UHFFFAOYSA-N,457020,NA,Positive,ET110501|ET110502|ET110503|ET110504|ET110505|ET110506,[M+H]+,HCD15|HCD30|HCD45|HCD60|HCD75|HCD90,269.1647:196.1122:57.0697|196.1121:269.1647:95.0855|196.112:168.0811:57.0697|196.112:168.0807:167.0728|168.0808:196.112:167.0729|167.0729:168.0807:91.0542,196.112;168.08075;167.0729;95.0855;91.0542;57.0697,Eawag_Additional_Specs,NA,NA,NA,NA,NA,NA
stpQQR565,NPE_255.1491_11.6|Pheniramine formamide|PHE_255.1497_11.6,CN(CCC(C1=CC=CC=C1)C1=NC=CC=C1)C=O,254.1419,C16H18N2O,"InChI=1S/C16H18N2O/c1-18(13-19)12-10-15(14-7-3-2-4-8-14)16-9-5-6-11-17-16/h2-9,11,13,15H,10,12H2,1H3",CAS_RN: NA,NA,SXXHPCVDFDABHW-UHFFFAOYSA-N,NA,NA,Positive,ET110601|ET110602|ET110603|ET110604|ET110605|ET110606,[M+H]+,HCD15|HCD30|HCD45|HCD60|HCD75|HCD90,255.1491:196.112:227.1544|196.112:255.1491:227.1548|196.1121:168.081:57.0698|196.1121:168.0809:167.0729|196.1121:168.0807:167.0729|167.0729:168.0807:91.0542,227.1546;196.1121;168.0808;167.0729;91.0542;57.0698,Eawag_Additional_Specs,NA,NA,NA,NA,NA,NA
stpQQR566,NPE_255.1491_11.0|N-acetyl-N-didemethylpheniramine|N-(3-phenyl-3-pyridin-2-ylpropyl)acetamide,CC(=O)NCCC(C1=CC=CC=C1)C1=NC=CC=C1,254.1419,C16H18N2O,"InChI=1S/C16H18N2O/c1-13(19)17-12-10-15(14-7-3-2-4-8-14)16-9-5-6-11-18-16/h2-9,11,15H,10,12H2,1H3,(H,17,19)",CAS_RN: NA,524049,ZMNXZIWMJCGGHP-UHFFFAOYSA-N,457019,NA,Positive,ET110701|ET110702|ET110703|ET110704|ET110705|ET110706,[M+H]+,HCD15|HCD30|HCD45|HCD60|HCD75|HCD90,255.1491:196.112:227.1544|196.112:255.1491:227.1548|196.1121:168.081:57.0698|196.1121:168.0809:167.0729|196.1121:168.0807:167.0729|167.0729:168.0807:91.0542,227.1546;196.1121;168.0808;167.0729;91.0542;57.0698,Eawag_Additional_Specs,NA,NA,NA,NA,NA,NA
stpQQR567,NPE_241.1335_10.3,CNC(=O)CC(C1=CC=CC=C1)C1=NC=CC=C1,240.1263,C15H16N2O,"InChI=1S/C15H16N2O/c1-16-15(18)11-13(12-7-3-2-4-8-12)14-9-5-6-10-17-14/h2-10,13H,11H2,1H3,(H,16,18)",CAS_RN: NA,NA,CKQJTGWITOTSIE-UHFFFAOYSA-N,NA,NA,Positive,ET110801|ET110802|ET110803|ET110804|ET110805|ET110806,[M+H]+,HCD15|HCD30|HCD45|HCD60|HCD75|HCD90,241.1334:196.112:105.0335|196.112:241.1335:105.0334|196.112:105.0336:241.1331|196.1121:168.0807:167.0729|168.0807:196.112:167.0729|167.0729:168.0807:91.0542,196.112;168.0807;167.0729;105.0335;91.0542,Eawag_Additional_Specs,NA,NA,NA,NA,NA,NA
stpQQR568,NPE_212.1070_9.8|3-phenyl-3-pyridin-2-ylpropanal,O=CCC(C1=CC=CC=C1)C1=NC=CC=C1,211.0997,C14H13NO,"InChI=1S/C14H13NO/c16-11-9-13(12-6-2-1-3-7-12)14-8-4-5-10-15-14/h1-8,10-11,13H,9H2",CAS_RN: NA,10443138,NIUINLYXRYRLBJ-UHFFFAOYSA-N,8618557,NA,Positive,ET110903,[M+H]+,HCD160-0.41mz or 15 (mz>350) nominal units,168.0806:167.0728:169.0883,169.0883;168.0806;167.0728,Eawag_Additional_Specs,NA,NA,NA,NA,NA,NA
stpQQR569,NPE_228.1019_12.4|3-phenyl-3-pyridin-2-ylpropanoic acid,OC(=O)CC(C1=CC=CC=C1)C1=NC=CC=C1,227.0946,C14H13NO2,"InChI=1S/C14H13NO2/c16-14(17)10-12(11-6-2-1-3-7-11)13-8-4-5-9-15-13/h1-9,12H,10H2,(H,16,17)",CAS_RN: NA,10633058,XTQOUVPIWQGVEJ-UHFFFAOYSA-N,8808420,NA,Positive,ET111201|ET111202|ET111203|ET111204|ET111205|ET111206,[M+H]+,HCD15|HCD30|HCD45|HCD60|HCD75|HCD90,228.102:210.0914:168.0805|210.0914:228.102:168.0803|210.0914:168.0808:182.0964|168.0808:182.0966:210.0912|168.0808:167.073:182.0962|167.0729:168.0807:180.0803,210.0914;182.0964;180.0803;168.08075;167.07295,Eawag_Additional_Specs,NA,NA,NA,NA,NA,NA
stpQQR570,NPE_241.1335_10.8|N-[3-phenyl-3-(pyridin-2-yl)propyl]formamide,O=CNCCC(C1=CC=CC=C1)C1=NC=CC=C1,240.1263,C15H16N2O,"InChI=1S/C15H16N2O/c18-12-16-11-9-14(13-6-2-1-3-7-13)15-8-4-5-10-17-15/h1-8,10,12,14H,9,11H2,(H,16,18)",CAS_RN: NA,NA,BRZLPCQEKPAETF-UHFFFAOYSA-N,NA,NA,Positive,ET111301|ET111302|ET111303|ET111304|ET111305|ET111306,[M+H]+,HCD15|HCD30|HCD45|HCD60|HCD75|HCD90,241.1334:196.112:105.0335|196.112:241.1335:105.0334|196.112:105.0336:241.1331|196.1121:168.0807:167.0729|168.0807:196.112:167.0729|167.0729:168.0807:91.0542,196.112;168.0807;167.0729;105.0335;91.0542,Eawag_Additional_Specs,NA,NA,NA,NA,NA,NA
stpQQR571,NVE_264.1959_12.6|N-desmethylvenlafaxine|1-[1-(4-methoxyphenyl)-2-(methylamino)ethyl]cyclohexan-1-ol,CNCC(C1=CC=C(OC)C=C1)C1(O)CCCCC1,263.1885,C16H25NO2,"InChI=1S/C16H25NO2/c1-17-12-15(16(18)10-4-3-5-11-16)13-6-8-14(19-2)9-7-13/h6-9,15,17-18H,3-5,10-12H2,1-2H3",CAS_RN: 149289-30-5,3501942,MKAFOJAJJMUXLW-UHFFFAOYSA-N,2741972,DTXSID20881050,Positive,EA103401|EA103402|EA103403|EA103404|EA103405|EA103406|EA103407|EA103408|EA103409|EA103410|EA103411|EA103412|EA103413|EA103414;ET120001|ET120002|ET120003|ET120004|ET120005,[M+H]+;[M+H]+,"CID35|HCD15|HCD30|HCD45|HCD60|HCD75|HCD90|HCD15|HCD30|HCD45|HCD60|HCD75|HCD90|CID35;HCD15, 30, 45, 60, 70 or 90|HCD15, 30, 45, 60, 70 or 90|HCD15, 30, 45, 60, 70 or 90|HCD15, 30, 45, 60, 70 or 90|HCD15, 30, 45, 60, 70 or 90",246.1854:215.1429:121.0643|264.1961:246.1851:215.1431|215.1429:246.185:264.1958|121.0648:215.1431:147.0805|121.0647:147.0804:173.096|121.0649:147.0805:91.0543|121.0648:91.0542:147.0804|264.196:246.1852:215.143|246.1851:215.1431:264.1954|121.0648:215.143:147.0804|121.0648:147.0804:173.096|121.0648:147.0804:91.0542|121.0648:91.0542:147.0804|246.1853:215.1429:121.0649;121.0647:91.0542:95.0491|246.1852:264.1957:215.1431|215.143:246.1852:121.0647|121.0647:147.0804:215.143|121.0647:147.0804:173.096,246.1852;215.143;173.096;147.0804;121.0648;95.0491;91.0542,Eawag;Eawag_Additional_Specs,NA,NA,NA,NA,NA,NA
stpQQR572,"NVE_250.1804_10.8|N,O-didesmethylvenlafaxine|4-[1-(1-hydroxycyclohexyl)-2-(methylamino)ethyl]phenol",CNCC(C1=CC=C(O)C=C1)C1(O)CCCCC1,249.1729,C15H23NO2,"InChI=1S/C15H23NO2/c1-16-11-14(12-5-7-13(17)8-6-12)15(18)9-3-2-4-10-15/h5-8,14,16-18H,2-4,9-11H2,1H3",CAS_RN: 135308-74-6,3451347,MMSWXJSQCAEDLK-UHFFFAOYSA-N,2693701,NA,Positive,AU201701|AU201702|AU201703|AU201704|AU201705;EA265701|EA265702|EA265703|EA265704|EA265705|EA265706|EA265707|EA265708|EA265709|EA265710|EA265711|EA265712|EA265713|EA265714;ET120101|ET120102|ET120103|ET120104|ET120105,[M+H]+;[M+H]+;[M+H]+,"CID10|CID20|CID30|CID40|CID50;CID35|HCD15|HCD30|HCD45|HCD60|HCD75|HCD90|HCD15|HCD30|HCD45|HCD60|HCD75|HCD90|CID35;HCD15, 30, 45, 60, 70 or 90|HCD15, 30, 45, 60, 70 or 90|HCD15, 30, 45, 60, 70 or 90|HCD15, 30, 45, 60, 70 or 90|HCD15, 30, 45, 60, 70 or 90",250.1801:232.1693:251.1824|201.1264:133.0637:232.1687|133.0639:159.079:145.0636|133.0639:159.0788:145.0633|133.064:144.0559:115.0534;232.1698:201.1276:107.0487|250.1804:232.1696:201.1273|232.1696:250.1799:201.1274|133.0648:107.0492:201.1273|107.0492:133.0649:159.0805|107.0492:133.0648:159.0805|107.0492:133.0649:105.0699|250.1805:232.1699:201.1275|232.1696:250.1805:201.1274|133.0649:201.1275:107.0492|107.0491:133.0648:159.0804|107.0492:133.0648:159.0804|107.0492:133.0648:105.0699|232.1698:201.1274;107.049:133.0645:159.0802|107.049:133.0646:105.0697|107.049:105.0697:79.0542|232.1693:250.1798:201.1271|232.1693:201.1271:250.1798,232.1696;201.1274;159.0804;145.06345;144.0559;133.0648;115.0534;107.0492;105.0698;79.0542,Athens_Univ;Eawag;Eawag_Additional_Specs,NA,NA,NA,NA,NA,NA
stpQQR573,NVE_280.1909_11.8,NA,279.1834,C16H25NO3,NA,CAS_RN: NA,NA,NA,NA,NA,Positive,ET120401|ET120402|ET120403|ET120404|ET120405|ET120406,[M+H]+,HCD15|HCD30|HCD45|HCD60|HCD75|HCD90,280.1907:149.0233:231.1381|149.0233:280.1905:121.0647|121.0648:149.0234:213.1275|121.0648:149.0234:171.0805|121.0648:149.0234:121.0287|121.0648:65.0386:91.0543,231.1381;213.1275;171.0805;149.0234;121.0648;121.0287;91.0543;65.0386,Eawag_Additional_Specs,NA,NA,NA,NA,NA,NA
stpQQR574,NVE_278.1753_9.6,NA,277.1678,C16H23NO3,NA,CAS_RN: NA,NA,NA,NA,NA,Positive,ET120501|ET120502|ET120503|ET120504|ET120505|ET120506,[M+H]+,HCD15|HCD30|HCD45|HCD60|HCD75|HCD90,260.1649:217.1229:235.1333|217.1228:121.065:236.1721|121.0647:236.1729:217.1229|121.0648:57.0698:149.0232|121.0648:91.0544:57.0698|121.0648:91.0542:95.0494,260.1649;236.1725;235.1333;217.1229;149.0232;121.0648;95.0494;91.0543;57.0698,Eawag_Additional_Specs,NA,NA,NA,NA,NA,NA
stpQQR575,NVE_247.1330_17.3,COC1=CC=C(C=C1)C(C(O)=O)C1=CCCCC1,246.1256,C15H18O3,"InChI=1S/C15H18O3/c1-18-13-9-7-12(8-10-13)14(15(16)17)11-5-3-2-4-6-11/h5,7-10,14H,2-4,6H2,1H3,(H,16,17)",CAS_RN: NA,NA,QSIOKMFRNDBUFC-UHFFFAOYSA-N,NA,NA,Positive,ET120601|ET120602|ET120603|ET120604|ET120605|ET120606,[M+H]+,HCD15|HCD30|HCD45|HCD60|HCD75|HCD90,201.1274:165.0547:247.1331|165.0547:201.1274:121.0649|121.0648:165.0547:201.1276|121.0647:137.0598:109.0647|121.0648:109.0649:91.0543|91.0543:121.0647:94.0413,201.1274;165.0547;137.0598;121.0648;109.0648;94.0413;91.0543,Eawag_Additional_Specs,NA,NA,NA,NA,NA,NA
stpQQR576,NVE_274.1802_16.6,COC1=CC=C(C=C1)C(CNC(C)=O)C1=CCCCC1,273.1729,C17H23NO2,"InChI=1S/C17H23NO2/c1-13(19)18-12-17(14-6-4-3-5-7-14)15-8-10-16(20-2)11-9-15/h6,8-11,17H,3-5,7,12H2,1-2H3,(H,18,19)",CAS_RN: NA,NA,KBTRXOVQHFGXMN-UHFFFAOYSA-N,NA,NA,Positive,ET120701|ET120702|ET120703|ET120704|ET120705|ET120706,[M+H]+,HCD15|HCD30|HCD45|HCD60|HCD75|HCD90,215.1432:166.1226:60.0808|215.1431:60.0808:166.1227|215.1431:121.0648:60.0808|121.0648:60.0808:147.0805|121.0648:60.0808:91.0544|121.0648:91.0542:60.0808,215.1431;166.12265;147.0805;121.0648;91.0543;60.0808,Eawag_Additional_Specs,NA,NA,NA,NA,NA,NA
stpQQR577,NVE_278.1753_8.8,NA,277.1678,C16H23NO3,NA,CAS_RN: NA,NA,NA,NA,NA,Positive,ET121001|ET121002|ET121003|ET121004|ET121005|ET121006,[M+H]+,HCD15|HCD30|HCD45|HCD60|HCD75|HCD90,260.1646:171.0804:121.0648|171.0805:121.0648:260.1646|121.0649:171.0805:236.1728|121.0649:171.0805:159.0805|121.0649:171.0806:128.0621|121.0649:128.0622:91.0543,260.1646;236.1728;171.0805;159.0805;128.06215;121.0649;91.0543,Eawag_Additional_Specs,NA,NA,NA,NA,NA,NA
stpQQR578,NVE_278.1753_15.6,NA,277.1678,C16H23NO3,NA,CAS_RN: NA,NA,NA,NA,NA,Positive,ET121103,[M+H]+,HCD160-0.41mz or 15 (mz>350) nominal units,163.0991:162.0915:72.0445,163.0991;162.0915;72.0445,Eawag_Additional_Specs,NA,NA,NA,NA,NA,NA
stpQQR579,OCP_197.0840_11.1|o-Chlorophenylpiperarzine|1-(3-chlorophenyl)piperazine,Clc1cccc(c1)N1CCNCC1,196.0767,C10H13ClN2,"InChI=1S/C10H13ClN2/c11-9-2-1-3-10(8-9)13-6-4-12-5-7-13/h1-3,8,12H,4-7H2",CAS_RN: 371-40-4,1355,VHFVKMTVMIZMIK-UHFFFAOYSA-N,1314,DTXSID9045138,Positive,EA281801|EA281802|EA281803|EA281804|EA281805|EA281806|EA281807|EA281808|EA281809|EA281810|EA281811|EA281812|EA281813|EA281814;ET130001|ET130002|ET130003|ET130004|ET130005,[M+H]+;[M+H]+,"CID35|HCD15|HCD30|HCD45|HCD60|HCD75|HCD90|HCD15|HCD30|HCD45|HCD60|HCD75|HCD90|CID35;HCD15, 30, 45, 60, 70 or 90|HCD15, 30, 45, 60, 70 or 90|HCD15, 30, 45, 60, 70 or 90|HCD15, 30, 45, 60, 70 or 90|HCD15, 30, 45, 60, 70 or 90",154.042:119.073:197.0843|197.0844|197.0843:154.042:119.073|197.0843:154.042:119.0731|154.0419:197.0843:119.073|154.042:119.0731:118.0652|154.0417:118.0652:119.0729|197.0842:154.0413|197.0842:154.042:195.0685|197.0842:154.0419:119.073|154.0419:197.0842:119.073|154.0419:119.073:118.0652|154.0419:118.0652:119.073|154.0419:119.073:140.0262;154.0415:119.0726:118.0649|118.0649:119.0726:154.0415|197.0835:154.0414:119.0727|197.0835:154.0415:119.0727|197.0836:154.0416:119.0727,195.0685;154.0419;140.0262;119.073;118.0652,Eawag;Eawag_Additional_Specs,NA,NA,NA,NA,NA,NA
stpQQR580,OCP_239.0946_17.0|N-acetyl-o-Chloropiperarzine|1-[4-(2-chlorophenyl)piperazin-1-yl]ethanone,CC(=O)N1CCN(CC1)c1ccccc1Cl,238.0873,C12H15ClN2O,"InChI=1S/C12H15ClN2O/c1-10(16)14-6-8-15(9-7-14)12-5-3-2-4-11(12)13/h2-5H,6-9H2,1H3",CAS_RN: NA,258328,LBSHKCUTMCYUOW-UHFFFAOYSA-N,226679,DTXSID50891566,Positive,ET130101|ET130102|ET130103|ET130104|ET130105|ET130106,[M+H]+,HCD15|HCD30|HCD45|HCD60|HCD75|HCD90,239.0947:196.0522:197.0838|197.084:196.0525:239.0948|197.0842:112.0758:154.0419|154.042:197.0842:112.0758|154.0419:119.0731:118.0651|118.0652:119.073:154.0419,197.0841;196.05235;154.0419;119.07305;118.06515;112.0758,Eawag_Additional_Specs,NA,NA,NA,NA,NA,NA
stpQQR581,OCP_297.1002_16.5|N-succinyl-o-Chloropiperarzine|4-[4-(2-chlorophenyl)piperazin-1-yl]-4-oxobutanoic acid,OC(=O)CCC(=O)N1CCN(CC1)c1ccccc1Cl,296.0928,C14H17ClN2O3,"InChI=1S/C14H17ClN2O3/c15-11-3-1-2-4-12(11)16-7-9-17(10-8-16)13(18)5-6-14(19)20/h1-4H,5-10H2,(H,19,20)",CAS_RN: NA,28830401,FMKKWAHJJLLAOW-UHFFFAOYSA-N,24285690,DTXSID10891567,Positive,ET130201|ET130202|ET130203|ET130204|ET130205|ET130206,[M+H]+,HCD15|HCD30|HCD45|HCD60|HCD75|HCD90,297.1001:279.0895:197.084|279.0896:197.084:297.1001|279.0896:195.0685:197.084|154.0419:197.0841:195.0685|154.0419:119.073:118.0652|118.0651:154.0419:119.073,279.0896;197.084;195.0685;154.0419;119.073;118.06515,Eawag_Additional_Specs,NA,NA,NA,NA,NA,NA
stpQQR582,OCP_295.0845_17.0|N-fumaryl-o-Chloropiperarzine|(E)-4-[4-(2-chlorophenyl)piperazin-1-yl]-4-oxobut-2-enoic acid,OC(=O)\C=C\C(=O)N1CCN(CC1)c1ccccc1Cl,294.0771,C14H15ClN2O3,"InChI=1S/C14H15ClN2O3/c15-11-3-1-2-4-12(11)16-7-9-17(10-8-16)13(18)5-6-14(19)20/h1-6H,7-10H2,(H,19,20)/b6-5+",CAS_RN: NA,17279890,AXXAWJZEEQXNHQ-AATRIKPKSA-N,23371805,DTXSID70891568,Positive,ET130301|ET130302|ET130303|ET130304|ET130305|ET130306,[M+H]+,HCD15|HCD30|HCD45|HCD60|HCD75|HCD90,295.0844:252.0422:168.0656|252.0423:295.0844:168.0655|122.06:252.0423:154.0419|122.06:154.0418:99.0077|122.06:154.0419:99.0077|118.0652:122.06:154.0418,252.0423;168.06555;154.04185;122.06;118.0652;99.0077,Eawag_Additional_Specs,NA,NA,NA,NA,NA,NA
stpQQR583,OCP_225.0789_16.6|N-formyl-o-Chloropiperarzine|4-(3-chlorophenyl)piperazine-1-carbaldehyde,Clc1cccc(c1)N1CCN(CC1)C=O,224.0716,C11H13ClN2O,"InChI=1S/C11H13ClN2O/c12-10-2-1-3-11(8-10)14-6-4-13(9-15)5-7-14/h1-3,8-9H,4-7H2",CAS_RN: 20011-14-7,11264593,IGIBHEMNRYAZQH-UHFFFAOYSA-N,9439605,DTXSID30891569,Positive,ET130401|ET130402|ET130403|ET130404|ET130405|ET130406,[M+H]+,HCD15|HCD30|HCD45|HCD60|HCD75|HCD90,197.0841:225.0786:154.0417|197.084:225.0782:154.042|197.084:154.0418:98.0601|154.0419:119.073:197.084|154.0419:119.0731:118.0651|118.0652:119.0729:154.0419,197.084;154.0419;119.073;118.06515;98.0601,Eawag_Additional_Specs,NA,NA,NA,NA,NA,NA
stpQQR584,OCP_283.0845_16.2|N-malonyl-o-Chloropiperarzine|3-[4-(2-chlorophenyl)piperazin-1-yl]-3-oxopropanoic acid,OC(=O)CC(=O)N1CCN(CC1)c1ccccc1Cl,282.0771,C13H15ClN2O3,"InChI=1S/C13H15ClN2O3/c14-10-3-1-2-4-11(10)15-5-7-16(8-6-15)12(17)9-13(18)19/h1-4H,5-9H2,(H,18,19)",CAS_RN: NA,62230060,XHCNVUPFYLKTEJ-UHFFFAOYSA-N,NA,DTXSID40891570,Positive,ET130601|ET130602|ET130603|ET130604|ET130605|ET130606,[M+H]+,HCD15|HCD30|HCD45|HCD60|HCD75|HCD90,197.084:283.0844:239.0948|197.084:223.0638:239.0939|197.0841:223.0633:154.0418|154.0418:197.084:119.073|154.0419:119.073:118.0652|118.065:119.073:154.0418,239.09435;223.06355;197.084;154.0418;119.073;118.0651,Eawag_Additional_Specs,NA,NA,NA,NA,NA,NA
stpQQR585,OCP_186.0317_15.9|D-(2-Chlorophenyl)glycine|2-(2-chloroanilino)acetic acid,OC(=O)CNc1ccccc1Cl,185.0244,C8H8ClNO2,"InChI=1S/C8H8ClNO2/c9-6-3-1-2-4-7(6)10-5-8(11)12/h1-4,10H,5H2,(H,11,12)",CAS_RN: 6961-49-5,247831,NSDVLRONTCKCPY-UHFFFAOYSA-N,216960,DTXSID80289730,Positive,ET130701|ET130702|ET130703|ET130704|ET130705|ET130706,[M+H]+,HCD15|HCD30|HCD45|HCD60|HCD75|HCD90,140.0261:186.0315|140.0261:186.0313|140.0261:127.0185|140.0262:127.0182:95.0488|140.0261:95.0493:127.018|140.0261:95.0492:105.0447,140.0261;127.0182;105.0447;95.0492,Eawag_Additional_Specs,NA,NA,NA,NA,NA,NA