NORMAN_ID,NAME,SMILES,NEUTRAL_EXACT_MASS,FORMULA,StdInChI,CAS_RN,PUBCHEM_CID,InChIKey,CHEMSPIDER_ID,DTXSID,Preferable Ionization,MB_Records Positive Ionization,Adduct Positive Ionization,Ionisation type and collision energy Positive Ionization,Fragments Positive Ionization,Simplified_fragments_Positive,Institute Positive Ionization,MB_Records Negative Ionization,Adduct Negative Ionization,Ionisation type and collision energy Negative Ionization,Fragments Negative Ionization,Simplified_fragments_Negative,Institute Negative Ionization
stpQQR534,DEP_204.1384_15.1,NA,203.131,C13H17NO,NA,CAS_RN: NA,NA,NA,NA,NA,Positive,ET050401|ET050402|ET050403|ET050404|ET050405|ET050406,[M+H]+,HCD15|HCD30|HCD45|HCD60|HCD75|HCD90,204.1385:86.0601:91.0542|204.1385:91.0542:86.0601|91.0542:86.0601:119.0856|91.0543:86.0601:68.0495|91.0542:86.0601:68.0495|91.0542:65.0386:68.0495,119.0856;91.0542;86.0601;68.0495;65.0386,Eawag_Additional_Specs,NA,NA,NA,NA,NA,NA
stpQQR535,DEP_202.1225_16.0,NA,201.1154,C13H15NO,NA,CAS_RN: NA,NA,NA,NA,NA,Positive,ET050501|ET050502|ET050503|ET050504|ET050505|ET050506,[M+H]+,HCD15|HCD30|HCD45|HCD60|HCD75|HCD90,91.0542:119.0855:184.0758|91.0542:119.0857:184.076|91.0543:130.0651:184.0767|91.0542:130.0653:129.0695|91.0543:130.0654:117.0572|91.0542:130.0651:117.0572,184.076;130.0652;129.0695;119.0856;117.0572;91.0542,Eawag_Additional_Specs,NA,NA,NA,NA,NA,NA
stpQQR536,DEP_216.1383_16.4,CC(CC1=CC=CC=C1)N(CC#C)C(C)=O,215.131,C14H17NO,"InChI=1S/C14H17NO/c1-4-10-15(13(3)16)12(2)11-14-8-6-5-7-9-14/h1,5-9,12H,10-11H2,2-3H3",CAS_RN: NA,NA,JJOSIKPABYYKOP-UHFFFAOYSA-N,NA,NA,Positive,ET050601|ET050602|ET050603|ET050604|ET050605|ET050606,[M+H]+,HCD15|HCD30|HCD45|HCD60|HCD75|HCD90,95.0493:105.0447:119.0855|95.0492:105.0447:77.0385|95.0491:105.0448:77.0386|95.0492:105.0448:77.0386|95.0491:105.0447:77.0386|95.0492:105.0447:77.0386,119.0855;105.0447;95.0492;77.0386,Eawag_Additional_Specs,NA,NA,NA,NA,NA,NA
stpQQR537,DEP_178.1226_15.3|N-formylmethamphetamine|N-methyl-N-(1-phenylpropan-2-yl)formamide,CC(CC1=CC=CC=C1)N(C)C=O,177.1154,C11H15NO,"InChI=1S/C11H15NO/c1-10(12(2)9-13)8-11-6-4-3-5-7-11/h3-7,9-10H,8H2,1-2H3",CAS_RN: 42932-20-7,170705,GLSMSUZWTDVJMA-UHFFFAOYSA-N,149242,NA,Positive,ET050801|ET050802|ET050803|ET050804|ET050805|ET050806,[M+H]+,HCD15|HCD30|HCD45|HCD60|HCD75|HCD90,91.0546:119.0858|91.0542:119.0854|91.0544:119.0856|91.0544|91.0543|91.0543,119.0856;91.05435,Eawag_Additional_Specs,NA,NA,NA,NA,NA,NA
stpQQR538,FEN_232.1308_12.4|Feniramine (Fenfluramine)|N-ethyl-1-[3-(trifluoromethyl)phenyl]propan-2-amine,CCNC(C)CC1=CC=CC(=C1)C(F)(F)F,231.1235,C12H16F3N,"InChI=1S/C12H16F3N/c1-3-16-9(2)7-10-5-4-6-11(8-10)12(13,14)15/h4-6,8-9,16H,3,7H2,1-2H3",CAS_RN: 458-24-2,3337,DBGIVFWFUFKIQN-UHFFFAOYSA-N,3220,DTXSID4023044,Positive,AU224801|AU224802|AU224803|AU224804|AU224805;ET060001|ET060002|ET060003|ET060004|ET060005,[M+H]+;[M+H]+,"CID10|CID20|CID30|CID40|CID50;HCD15, 30, 45, 60, 70 or 90|HCD15, 30, 45, 60, 70 or 90|HCD15, 30, 45, 60, 70 or 90|HCD15, 30, 45, 60, 70 or 90|HCD15, 30, 45, 60, 70 or 90",232.1306:233.1337:159.0409|159.0409:232.1305:187.0721|159.0409:160.0442:139.0346|159.0409:160.0442:147.0344|159.0406:139.0343:160.0442;232.1306:159.0415:187.0728|159.0416:187.0727:232.1306|159.0416:109.0446:187.0732|159.0416:109.0447:139.0352|159.0415:109.0447:139.0351,187.07275;160.0442;159.0412;147.0344;139.03485;109.0447,Athens_Univ;Eawag_Additional_Specs,NA,NA,NA,NA,NA,NA
stpQQR539,FEN_204.0996_12.2|N-desethylfeniramine (Norfenfluramine)|1-[3-(trifluoromethyl)phenyl]propan-2-amine,CC(N)CC1=CC=CC(=C1)C(F)(F)F,203.0922,C10H12F3N,"InChI=1S/C10H12F3N/c1-7(14)5-8-3-2-4-9(6-8)10(11,12)13/h2-4,6-7H,5,14H2,1H3",CAS_RN: 673-18-7,15897,MLBHFBKZUPLWBD-UHFFFAOYSA-N,15108,DTXSID30862774,Positive,AU211501|AU211502|AU211503|AU211504|AU211505;EQ346801|EQ346802|EQ346803|EQ346804|EQ346805|EQ346806|EQ346807|EQ346808|EQ346809;ET060101|ET060102|ET060103|ET060104|ET060105,[M+H]+;[M+H]+;[M+H]+,"CID10|CID20|CID30|CID40|CID50;HCD15|HCD30|HCD45|HCD60|HCD75|HCD90|HCD120|HCD150|HCD180;HCD15, 30, 45, 60, 70 or 90|HCD15, 30, 45, 60, 70 or 90|HCD15, 30, 45, 60, 70 or 90|HCD15, 30, 45, 60, 70 or 90|HCD15, 30, 45, 60, 70 or 90",187.0725:204.0992:159.0409|159.0406:160.0441:187.0715|159.0409:160.0441:139.0347|159.0405:160.0438:139.0342|159.0405:147.0341:139.0346;187.0728:159.0416:204.0995|159.0415:187.0728:204.0995|159.0415:187.0728:204.0994|159.0415:109.0447:187.0727|159.0415:109.0448:139.0353|159.0415:109.0448:139.0353|109.0448:159.0416:83.0291|109.0448:83.0291:89.0385|83.0291:89.0385:109.0448;187.0727:159.0415:204.0992|159.0416:187.0727:204.0993|159.0416:187.0727:109.0444|159.0416:109.0446:139.0351|159.0416:109.0446:139.0351,187.0727;160.0441;159.0415;147.0341;139.0351;109.0448;89.0385;83.0291,Athens_Univ;Eawag;Eawag_Additional_Specs,NA,NA,NA,NA,NA,NA
stpQQR540,FEN_246.1101_16.9,NA,245.1027,C12H14F3NO,NA,CAS_RN: NA,NA,NA,NA,NA,Positive,ET060201|ET060202|ET060203|ET060204|ET060205|ET060206,[M+H]+,HCD15|HCD30|HCD45|HCD60|HCD75|HCD90,222.1126:246.1101:204.1014|222.1126:184.0933:159.0417|159.0417:184.0934:222.1127|159.0417:184.0934:60.0444|159.0417:60.0444:109.0449|159.0417:109.0449:60.0444,222.1126;204.1014;184.0934;159.0417;109.0449;60.0444,Eawag_Additional_Specs,NA,NA,NA,NA,NA,NA
stpQQR541,FEN_220.0944_12.9|N-desethyl-N-hydroxylfeniramine|N-[1-[3-(trifluoromethyl)phenyl]propan-2-yl]hydroxylamine,CC(CC1=CC(=CC=C1)C(F)(F)F)NO,219.0871,C10H12F3NO,"InChI=1S/C10H12F3NO/c1-7(14-15)5-8-3-2-4-9(6-8)10(11,12)13/h2-4,6-7,14-15H,5H2,1H3",CAS_RN: NA,12225835,WCJDAVUCGZTNMX-UHFFFAOYSA-N,NA,NA,Positive,ET060301|ET060302|ET060303|ET060304|ET060305|ET060306,[M+H]+,HCD15|HCD30|HCD45|HCD60|HCD75|HCD90,187.0729:159.0416:220.0944|159.0417:187.0729:220.0947|159.0416:187.073:59.0491|159.0417:109.0446:59.0489|159.0416:109.0448:139.0352|159.0416:109.0448:139.0354,187.0729;159.0416;139.0353;109.0448;59.049,Eawag_Additional_Specs,NA,NA,NA,NA,NA,NA
stpQQR542,FEN_246.1101_16.1|N-desethyl-N-acetylfeniramine|N-[1-[3-(trifluoromethyl)phenyl]propan-2-yl]acetamide,CC(CC1=CC(=CC=C1)C(F)(F)F)NC(C)=O,245.1027,C12H14F3NO,"InChI=1S/C12H14F3NO/c1-8(16-9(2)17)6-10-4-3-5-11(7-10)12(13,14)15/h3-5,7-8H,6H2,1-2H3,(H,16,17)",CAS_RN: 40552-64-5,38514,ZVKARXLKNIBGIR-UHFFFAOYSA-N,35298,NA,Positive,ET060401|ET060402|ET060403|ET060404|ET060405|ET060406,[M+H]+,HCD15|HCD30|HCD45|HCD60|HCD75|HCD90,187.073:246.1102:159.0416|159.0417:187.073:60.0444|159.0417:60.0444:141.0005|159.0418:60.0444:95.0491|159.0417:109.0448:95.0492|159.0417:109.0449:139.0355,187.073;159.0417;141.0005;139.0355;109.04485;95.04915;60.0444,Eawag_Additional_Specs,NA,NA,NA,NA,NA,NA
stpQQR543,FLU_310.1415_14.5|Fluoxetine|N-methyl-3-phenyl-3-[4-(trifluoromethyl)phenoxy]propan-1-amine,CNCCC(OC1=CC=C(C=C1)C(F)(F)F)C1=CC=CC=C1,309.134,C17H18F3NO,"InChI=1S/C17H18F3NO/c1-21-12-11-16(13-5-3-2-4-6-13)22-15-9-7-14(8-10-15)17(18,19)20/h2-10,16,21H,11-12H2,1H3",CAS_RN: 59333-67-4,3386,RTHCYVBBDHJXIQ-UHFFFAOYSA-N,3269,DTXSID7023067,Positive,AU150901|AU150902|AU150903|AU150904|AU150905;SM832103;EA033401|EA033402|EA033407|EA033408|EA033412|EA033413|EA033414;ET070001|ET070002|ET070003|ET070004|ET070005,[M+H]+;[M+H]+;[M+H]+;[M+H]+,"CID10|CID20|CID30|CID40|CID50;HCD35;CID35|HCD15|HCD90|HCD15|HCD75|HCD90|CID35;HCD15, 30, 45, 60, 70 or 90|HCD15, 30, 45, 60, 70 or 90|HCD15, 30, 45, 60, 70 or 90|HCD15, 30, 45, 60, 70 or 90|HCD15, 30, 45, 60, 70 or 90",310.1421:311.1446:148.1114|265.1577:223.1105:247.1476|219.1161:223.1112:265.1574|204.0926:219.1156:218.1075|204.0923:194.071:167.0847;310.1417:148.1123;148.112|310.1416:148.112|91.0543|310.1412:148.112|91.0542:117.0699|91.0542:117.0699|148.112;117.0696:91.0543|117.0697:91.054:115.0542|117.0697:91.0542:115.0542|148.112|148.112:117.0694,265.15755;247.1476;223.11085;219.11585;218.1075;204.09245;194.071;167.0847;148.112;117.0697;115.0542;91.0542,Athens_Univ;CASMI_2016;Eawag;Eawag_Additional_Specs,NA,NA,NA,NA,NA,NA
stpQQR544,FLU_410.1574_18.4|Fluoxetine Succinamic Acid|4-[methyl-[3-phenyl-3-[4-(trifluoromethyl)phenoxy]propyl]amino]-4-oxobutanoic acid,CN(CCC(OC1=CC=C(C=C1)C(F)(F)F)C1=CC=CC=C1)C(=O)CCC(O)=O,409.1501,C21H22F3NO4,"InChI=1S/C21H22F3NO4/c1-25(19(26)11-12-20(27)28)14-13-18(15-5-3-2-4-6-15)29-17-9-7-16(8-10-17)21(22,23)24/h2-10,18H,11-14H2,1H3,(H,27,28)",CAS_RN: 1026723-45-4,10525558,SAIPSZMZTANCFE-UHFFFAOYSA-N,8700954,DTXSID40441271,Positive,ET070201|ET070202|ET070203|ET070204|ET070205|ET070206,[M+H]+,HCD15|HCD30|HCD45|HCD60|HCD75|HCD90,248.1283:144.0657:392.1473|117.07:392.1471:88.1121|117.07:127.0629:98.0601|117.07:98.0601:99.0679|117.07:98.0601:115.0543|115.0543:98.0602:91.0543,392.1472;248.1283;144.0657;127.0629;117.07;115.0543;99.0679;98.0601;91.0543;88.1121,Eawag_Additional_Specs,NA,NA,NA,NA,NA,NA
stpQQR545,FLU_352.1520_18.8,NA,351.1446,C19H20F3NO2,NA,CAS_RN: NA,NA,NA,NA,NA,Positive,ET070403,[M+H]+,HCD160-0.41mz or 15 (mz>350) nominal units,190.1226:86.06:97.0647,190.1226;97.0647;86.06,Eawag_Additional_Specs,NA,NA,NA,NA,NA,NA
stpQQR546,"LID_235.1805_10.1|Lidocaine|2-(diethylamino)-N-(2,6-dimethylphenyl)acetamide",CCN(CC)CC(=O)NC1=C(C)C=CC=C1C,234.1732,C14H22N2O,"InChI=1S/C14H22N2O/c1-5-16(6-2)10-13(17)15-14-11(3)8-7-9-12(14)4/h7-9H,5-6,10H2,1-4H3,(H,15,17)",CAS_RN: 137-58-6,3676,NNJVILVZKWQKPM-UHFFFAOYSA-N,3548,DTXSID1045166,Positive,AU121202|AU121203|AU121204;EA257201|EA257202|EA257203|EA257204|EA257205|EA257206|EA257207|EA257208|EA257209|EA257210|EA257211|EA257212|EA257213|EA257214;ET080001|ET080002|ET080003|ET080004|ET080005;TUE00461|TUE00462|TUE00463;UF410201|UF410202|UF410203|UF410204,[M+H]+;[M+H]+;[M+H]+;[M+H]+;[M+H]+,"CID20|CID30|CID40;CID35|HCD15|HCD30|HCD45|HCD60|HCD75|HCD90|HCD15|HCD30|HCD45|HCD60|HCD75|HCD90|CID35;HCD15, 30, 45, 60, 70 or 90|HCD15, 30, 45, 60, 70 or 90|HCD15, 30, 45, 60, 70 or 90|HCD15, 30, 45, 60, 70 or 90|HCD15, 30, 45, 60, 70 or 90;NA10.0V|NA20.0V|NA40.0V;HCD55|HCD80|CID35|CID55",235.18:173.0792:217.1067|134.0957:235.1804:155.0676|134.096:173.1067:122.0959;86.0964:58.0649|235.1805:86.0962|235.1805:86.0964:58.065|86.0965:235.1814:58.0651|86.0965:58.0651|86.0964:58.0651|86.0964:58.0651|235.1805:86.0964|235.1806:86.0964:58.065|86.0965:235.1797:58.0651|86.0964:58.0651|86.0964:58.0651|86.0964:58.0651|86.0964:58.065;86.0965:58.0656|86.0965:58.0656|86.0965:58.0656:134.0968|235.1807:86.0965|86.0965:235.1807;86.0966:235.181:58.0653|86.0966:58.0652|86.0966:58.0652;86.0964:133.0077:235.1807|86.0964:133.0077:134.0965|86.0964:235.1808:133.0078|86.0964:133.0076:179.0131,217.1067;179.0131;173.1067;173.0792;155.0676;134.09625;133.0077;122.0959;86.0964;58.0651,Athens_Univ;Eawag;Eawag_Additional_Specs;Env_Anal_Chem_U_Tuebingen;UFZ,NA,NA,NA,NA,NA,NA
stpQQR547,"LID_251.1754_11.0|Lidocaine N-Oxide|2-(2,6-dimethylanilino)-N,N-diethyl-2-oxoethanamine oxide",CC[N+]([O-])(CC)CC(=O)NC1=C(C)C=CC=C1C,250.1681,C14H22N2O2,"InChI=1S/C14H22N2O2/c1-5-16(18,6-2)10-13(17)15-14-11(3)8-7-9-12(14)4/h7-9H,5-6,10H2,1-4H3,(H,15,17)",CAS_RN: 2903-45-9,3036923,YDVXPJXUHRROBA-UHFFFAOYSA-N,2300816,DTXSID30183274,Positive,AU211401|AU211402|AU211403|AU211404|AU211405;EQ327901|EQ327902|EQ327903|EQ327904|EQ327905|EQ327906|EQ327907|EQ327908|EQ327909;ET080101|ET080102|ET080103|ET080104|ET080105,[M+H]+;[M+H]+;[M+H]+,"CID10|CID20|CID30|CID40|CID50;HCD15|HCD30|HCD45|HCD60|HCD75|HCD90|HCD120|HCD150|HCD180;HCD15, 30, 45, 60, 70 or 90|HCD15, 30, 45, 60, 70 or 90|HCD15, 30, 45, 60, 70 or 90|HCD15, 30, 45, 60, 70 or 90|HCD15, 30, 45, 60, 70 or 90",251.1754:252.1782:130.0851|251.1749:164.1057:148.0747|120.0799:148.0743:122.0954|120.08:148.0747:122.0955|120.0802:148.0744:121.0846;251.1753:86.0964:130.0863|86.0963:251.1752:130.0862|86.0964:88.0756:120.0808|86.0964:88.0756:120.0808|86.0964:120.0808:88.0757|86.0964:120.0808:58.0651|86.0964:120.0808:58.0651|95.0492:91.0542:106.0651|95.0491:91.0542:51.023;86.0966:120.081:58.0656|251.1759:86.0966:130.0865|86.0966:251.1759:130.0865|86.0966:88.0758:120.081|86.0966:88.0759:120.081,164.1057;148.07455;130.0863;122.09545;121.0846;120.0808;106.0651;95.04915;91.0542;88.0757;86.0964;58.0651;51.023,Athens_Univ;Eawag;Eawag_Additional_Specs,NA,NA,NA,NA,NA,NA
stpQQR548,"LID_207.1492_9.6|N-desethyllidocaine|N-(2,6-dimethylphenyl)-2-(ethylamino)acetamide",CCNCC(=O)NC1=C(C)C=CC=C1C,206.1419,C12H18N2O,"InChI=1S/C12H18N2O/c1-4-13-8-11(15)14-12-9(2)6-5-7-10(12)3/h5-7,13H,4,8H2,1-3H3,(H,14,15)",CAS_RN: 7728-40-7,24415,WRMRXPASUROZGT-UHFFFAOYSA-N,22824,DTXSID60228006,Positive,AU211301|AU211302|AU211303|AU211304|AU211305;EQ347101|EQ347102|EQ347103|EQ347104|EQ347105|EQ347106|EQ347107|EQ347108|EQ347109;ET080201|ET080202|ET080203|ET080204|ET080205,[M+H]+;[M+H]+;[M+H]+,"CID10|CID20|CID30|CID40|CID50;HCD15|HCD30|HCD45|HCD60|HCD75|HCD90|HCD120|HCD150|HCD180;HCD15, 30, 45, 60, 70 or 90|HCD15, 30, 45, 60, 70 or 90|HCD15, 30, 45, 60, 70 or 90|HCD15, 30, 45, 60, 70 or 90|HCD15, 30, 45, 60, 70 or 90",207.1491:208.1516:122.0957|122.0956:207.1482:150.0904|122.0961:150.0901:132.0793|122.0961:117.057:123.0795|117.0561:122.0954:118.0651;58.0651:207.1493:122.0964|58.0651:207.1493:122.0964|58.0651:122.0965:150.0915|58.0651:122.0965:150.0914|58.0651:122.0964:105.0699|58.0651:107.073:105.0699|58.0652:106.0652:107.073|58.0652:106.0652:79.0542|58.0651:106.0651:95.0492;58.0654:122.0962:150.091|58.0654:122.0962:107.0728|58.0654:107.0728:105.0697|58.0654:207.149:122.0962|58.0654:207.149:122.0962,150.091;132.0793;123.0795;122.0962;118.0651;117.05655;107.0729;106.0652;105.0699;95.0492;79.0542;58.06515,Athens_Univ;Eawag;Eawag_Additional_Specs,NA,NA,NA,NA,NA,NA
stpQQR549,LID_265.1546_9.2|2-[[2-(diethylamino)acetyl]amino]-3-methylbenzoic acid,O=C(Nc1c(C)cccc1C(=O)O)CN(CC)CC,264.1474,C14H20N2O3,"InChI=1S/C14H20N2O3/c1-4-16(5-2)9-12(17)15-13-10(3)7-6-8-11(13)14(18)19/h6-8H,4-5,9H2,1-3H3,(H,15,17)(H,18,19)",CAS_RN: NA,19938477,ADEUTXKFSFCDGG-UHFFFAOYSA-N,14247648,DTXSID40891590,Positive,ET080301|ET080302|ET080303|ET080304|ET080305|ET080306,[M+H]+,HCD15|HCD30|HCD45|HCD60|HCD75|HCD90,265.1552:86.0965:100.0758|86.0965:100.0758:265.1553|86.0965:100.0758:58.0652|86.0965:58.0652:72.0444|86.0965:58.0652:72.0446|86.0965:58.0652:91.0544,100.0758;91.0544;86.0965;72.0445;58.0652,Eawag_Additional_Specs,NA,NA,NA,NA,NA,NA
stpQQR550,"LID_233.1648_14.5|N-(2,6-dimethylphenyl)-2-[ethenyl(ethyl)amino]acetamide",CCN(CC(=O)NC1=C(C)C=CC=C1C)C=C,232.1576,C14H20N2O,"InChI=1S/C14H20N2O/c1-5-16(6-2)10-13(17)15-14-11(3)8-7-9-12(14)4/h5,7-9H,1,6,10H2,2-4H3,(H,15,17)",CAS_RN: NA,NA,TXEIHNNJACYVDP-UHFFFAOYSA-N,NA,DTXSID70891583,Positive,ET080403,[M+H]+,HCD160-0.41mz or 15 (mz>350) nominal units,148.1121:58.0653:105.0698,148.1121;105.0698;58.0653,Eawag_Additional_Specs,NA,NA,NA,NA,NA,NA
stpQQR551,"LID_180.1018_12.9|Acetamide, N-(2,6-dimethylphenyl)-2-hydroxy-|N-(2,6-dimethylphenyl)-2-hydroxyacetamide",CC1=CC=CC(C)=C1NC(=O)CO,179.0946,C10H13NO2,"InChI=1S/C10H13NO2/c1-7-4-3-5-8(2)10(7)11-9(13)6-12/h3-5,12H,6H2,1-2H3,(H,11,13)",CAS_RN: 29183-14-0,14480057,LUIJJBHAVXGCTP-UHFFFAOYSA-N,11854678,DTXSID50560821,Positive,ET080501|ET080502|ET080503|ET080504|ET080505|ET080506,[M+H]+,HCD15|HCD30|HCD45|HCD60|HCD75|HCD90,180.102:122.0966:162.0915|180.1019:122.0966:162.0915|122.0966:134.0966:135.0806|122.0966:134.0965:135.0806|107.0732:134.0966:122.0966|107.0732:91.0544:105.0701,162.0915;135.0806;134.0966;122.0966;107.0732;105.0701;91.0544,Eawag_Additional_Specs,NA,NA,NA,NA,NA,NA
stpQQR552,LID_251.1754_8.2,NA,250.1681,C14H22N2O2,NA,CAS_RN: NA,NA,NA,NA,NA,Positive,ET080601|ET080602|ET080603|ET080604|ET080605|ET080606,[M+H]+,HCD15|HCD30|HCD45|HCD60|HCD75|HCD90,233.1658:59.0492:251.1763|59.0492:86.0965:233.1657|86.0965:59.0492:191.1799|86.0965:59.0492:95.0855|86.0965:59.0492:58.0652|86.0965:59.0492:58.0652,233.16575;191.1799;95.0855;86.0965;59.0492;58.0652,Eawag_Additional_Specs,NA,NA,NA,NA,NA,NA
stpQQR553,"MEX_180.1383_11.9|Mexiletine|1-(2,6-dimethylphenoxy)propan-2-amine",CC(N)COc1c(C)cccc1C,179.131,C11H17NO,"InChI=1S/C11H17NO/c1-8-5-4-6-9(2)11(8)13-7-10(3)12/h4-6,10H,7,12H2,1-3H3",CAS_RN: 94991-73-8,4178,VLPIATFUUWWMKC-UHFFFAOYSA-N,4034,DTXSID8048446,Positive,EQ301001|EQ301002|EQ301003|EQ301004|EQ301005|EQ301006;ET090001|ET090002|ET090003|ET090004|ET090005,[M+H]+;[M+H]+,"HCD15|HCD30|HCD45|HCD60|HCD75|HCD90;HCD15, 30, 45, 60, 70 or 90|HCD15, 30, 45, 60, 70 or 90|HCD15, 30, 45, 60, 70 or 90|HCD15, 30, 45, 60, 70 or 90|HCD15, 30, 45, 60, 70 or 90",58.0652:180.1382:163.1117|58.0652:180.1382:163.1117|58.0652:105.0699:121.0648|58.0652:105.0699:121.0648|58.0652:105.0699:121.0648|58.0652:105.0699:79.0542;58.0654:180.1381:163.1116|58.0654:180.1381:163.1116|58.0654:105.0698:121.0647|58.0655:105.0698:121.0647|58.0655:105.0698:79.0543,163.11165;121.0648;105.0699;79.05425;58.0652,Eawag;Eawag_Additional_Specs,NA,NA,NA,NA,NA,NA
stpQQR554,"MEX_222.1488_17.1|Mexiletine acetate|N-[1-(2,6-dimethylphenoxy)propan-2-yl]acetamide",CC(COc1c(C)cccc1C)NC(C)=O,221.1416,C13H19NO2,"InChI=1S/C13H19NO2/c1-9-6-5-7-10(2)13(9)16-8-11(3)14-12(4)15/h5-7,11H,8H2,1-4H3,(H,14,15)",CAS_RN: 91452-27-6,567741,DNSFMKGQWLZMOJ-UHFFFAOYSA-N,493593,DTXSID20340814,Positive,ET090101|ET090102|ET090103|ET090104|ET090105|ET090106,[M+H]+,HCD15|HCD30|HCD45|HCD60|HCD75|HCD90,100.0756:222.1487:58.0651|100.0756:58.0651:180.1381|100.0756:58.0651:121.0648|58.0651:100.0756:105.0699|58.0651:100.0756:105.0698|58.0651:100.0756:105.0699,180.1381;121.0648;105.0699;100.0756;58.0651,Eawag_Additional_Specs,NA,NA,NA,NA,NA,NA
stpQQR555,MEX_236.1645_17.7|N-propionylmexiletine|Mexiletine propionate,CCC(=O)NC(C)COc1c(C)cccc1C,235.1572,C14H21NO2,"InChI=1S/C14H21NO2/c1-5-13(16)15-12(4)9-17-14-10(2)7-6-8-11(14)3/h6-8,12H,5,9H2,1-4H3,(H,15,16)",CAS_RN: NA,NA,KQTNKAWCVIBWHG-UHFFFAOYSA-N,NA,NA,Positive,ET090201|ET090202|ET090203|ET090204|ET090205|ET090206,[M+H]+,HCD15|HCD30|HCD45|HCD60|HCD75|HCD90,114.0914:180.1383:58.0651|114.0914:58.0652:180.1384|114.0914:58.0652:57.0335|58.0652:114.0914:57.0335|58.0652:114.0914:57.0335|58.0652:57.0335:114.0915,180.13835;114.0914;58.0652;57.0335,Eawag_Additional_Specs,NA,NA,NA,NA,NA,NA
stpQQR556,MEX_178.1226_10.2,NA,177.1154,C11H15NO,NA,CAS_RN: NA,NA,NA,NA,NA,Positive,ET090601|ET090602|ET090603|ET090604|ET090605|ET090606,[M+H]+,HCD15|HCD30|HCD45|HCD60|HCD75|HCD90,178.1225:58.0651:161.0959|178.1225:58.0651:161.0959|58.0651:178.1225:57.0573|58.0651:57.0573:121.0647|58.0651:57.0573:121.0647|58.0652:57.0573:91.0542,161.0959;121.0647;91.0542;58.0651;57.0573,Eawag_Additional_Specs,NA,NA,NA,NA,NA,NA
stpQQR557,"MEX_208.1332_16.9|N-formylmexiletine|N-[1-(2,6-dimethylphenoxy)propan-2-yl]formamide",CC(COc1c(C)cccc1C)NC=O,207.1259,C12H17NO2,"InChI=1S/C12H17NO2/c1-9-5-4-6-10(2)12(9)15-7-11(3)13-8-14/h4-6,8,11H,7H2,1-3H3,(H,13,14)",CAS_RN: NA,NA,XBXKOKJLEVOCTF-UHFFFAOYSA-N,NA,NA,Positive,ET090701|ET090702|ET090703|ET090704|ET090705|ET090706,[M+H]+,HCD15|HCD30|HCD45|HCD60|HCD75|HCD90,86.06:58.0651:208.1341|86.06:58.0651:59.0491|86.06:58.0651:59.0491|86.06:58.0651:105.0698|58.0651:86.06:105.0697|58.0651:86.06:105.0699,105.0698;86.06;59.0491;58.0651,Eawag_Additional_Specs,NA,NA,NA,NA,NA,NA
stpQQR558,MEX_278.1387_17.3|N-fumarylmexiletine,CC(COc1c(C)cccc1C)NC(=O)\C=C\C(O)=O,277.1314,C15H19NO4,"InChI=1S/C15H19NO4/c1-10-5-4-6-11(2)15(10)20-9-12(3)16-13(17)7-8-14(18)19/h4-8,12H,9H2,1-3H3,(H,16,17)(H,18,19)/b8-7+",CAS_RN: NA,NA,IHYIZOZHEMEBGX-BQYQJAHWSA-N,NA,NA,Positive,ET090801|ET090802|ET090803|ET090804|ET090805|ET090806,[M+H]+,HCD15|HCD30|HCD45|HCD60|HCD75|HCD90,156.0655:58.0651:149.0233|156.0656:58.0652:99.0076|156.0655:58.0652:99.0077|58.0652:99.0077:156.0655|58.0652:99.0077:53.0022|53.0022:58.0652:99.0077,156.0655;149.0233;99.0077;58.0652;53.0022,Eawag_Additional_Specs,NA,NA,NA,NA,NA,NA