NORMAN_ID,NAME,SMILES,NEUTRAL_EXACT_MASS,FORMULA,StdInChI,CAS_RN,PUBCHEM_CID,InChIKey,CHEMSPIDER_ID,DTXSID,Preferable Ionization,MB_Records Positive Ionization,Adduct Positive Ionization,Ionisation type and collision energy Positive Ionization,Fragments Positive Ionization,Simplified_fragments_Positive,Institute Positive Ionization,MB_Records Negative Ionization,Adduct Negative Ionization,Ionisation type and collision energy Negative Ionization,Fragments Negative Ionization,Simplified_fragments_Negative,Institute Negative Ionization
stpQQR952,"Gemcitabine|2'-deoxy-2',2'-difluorocytidine|4-amino-1-[(2R,4R,5R)-3,3-difluoro-4-hydroxy-5-(hydroxymethyl)-2-oxolanyl]-2-pyrimidinone",NC1=NC(=O)N(C=C1)[C@@H]2O[C@H](CO)[C@@H](O)C2(F)F,263.0718,C9H11F2N3O4,"InChI=1S/C9H11F2N3O4/c10-9(11)6(16)4(3-15)18-7(9)14-2-1-5(12)13-8(14)17/h1-2,4,6-7,15-16H,3H2,(H2,12,13,17)/t4-,6-,7-/m1/s1",CAS_RN: 95058-81-4,60750,SDUQYLNIPVEERB-QPPQHZFASA-N,54753,DTXSID3040487,Positive/Negative,AU210601|AU210602;EA260301|EA260302|EA260303|EA260304|EA260305|EA260306|EA260307|EA260308|EA260309|EA260310|EA260311|EA260312|EA260313|EA260314,[M+H]+;[M+H]+,CID10|CID20;CID35|HCD15|HCD30|HCD45|HCD60|HCD75|HCD90|HCD15|HCD30|HCD45|HCD60|HCD75|HCD90|CID35,264.0792:112.0504:163.0019|144.9908:112.0504:163.0019;112.0506:95.0239:94.0396|264.0793:112.0505|112.0507:264.0789:87.0241|112.0506:87.024:264.0785|112.0507:87.0241:59.0292|112.0505:95.024:59.0291|112.0506:95.024:69.0447|264.0791:112.0505|112.0505:264.0788:87.024|112.0506:87.024:107.0303|112.0506:87.0241:59.0291|112.0506:95.024:59.0291|112.0505:95.024:69.0447|112.0505:95.0239:94.04,163.0019;144.9908;112.05055;107.0303;95.024;94.0398;87.02405;69.0447;59.0291,Athens_Univ;Eawag,EA260351|EA260352|EA260353|EA260354|EA260355|EA260356|EA260357|EA260358|EA260359|EA260360|EA260361|EA260362|EA260363|EA260364,[M-H]-,CID35|HCD15|HCD30|HCD45|HCD60|HCD75|HCD90|HCD15|HCD30|HCD45|HCD60|HCD75|HCD90|CID35,110.0361:242.0584:222.0522|110.036:262.0647:219.0585|109.0207:110.0359:219.059|109.0208:129.0269:139.0312|109.0208:89.0143|109.0208:65.0148|109.0206:65.0147:89.0146|110.0358:262.0647:219.0587|219.0588:149.0355:110.0357|109.0207:149.0353:129.0272|109.0207:129.0272|109.0207|109.0208:65.0146|110.036:242.0582:222.0519,262.0647;242.0583;222.05205;219.05875;149.0354;139.0312;129.0272;110.03595;109.0207;89.01445;65.0147,Eawag
stpQQR953,"Hydrochlorothiazide|6-Chloro-3,4-dihydro-2H-1,2,4-benzothiadiazine-7-sulfonamide 1,1-dioxide|6-chloranyl-1,1-bis(oxidanylidene)-3,4-dihydro-2H-1$l^{6},2,4-benzothiadiazine-7-sulfonamide",NS(=O)(=O)C1=CC2=C(NCNS2(=O)=O)C=C1Cl,296.9645,C7H8ClN3O4S2,"InChI=1S/C7H8ClN3O4S2/c8-4-1-5-7(2-6(4)16(9,12)13)17(14,15)11-3-10-5/h1-2,10-11H,3H2,(H2,9,12,13)",CAS_RN: 58-93-5,3639,JZUFKLXOESDKRF-UHFFFAOYSA-N,3513,DTXSID2020713,Positive/Negative,EA261001|EA261002|EA261003|EA261004|EA261005|EA261006|EA261007|EA261008|EA261009|EA261010|EA261011|EA261012|EA261013|EA261014,[M+H]+,CID35|HCD15|HCD30|HCD45|HCD60|HCD75|HCD90|HCD15|HCD30|HCD45|HCD60|HCD75|HCD90|CID35,280.9452:268.945|280.9454:297.9711:232.9785|280.9453:232.9781:216.983|232.9781:216.983:203.9514|139.9899:203.9517:142.9591|139.9898:107.9902:125.0027|139.9898:107.9903:125.0025|280.9451:297.9718:232.9782|280.9452:232.9782:216.9834|232.9782:216.9833:203.9516|139.9898:203.9516:107.9903|139.9898:107.9903:125.0027|139.9897:107.9903:125.0027|280.9451:268.9451:286.9556,286.9556;280.9452;268.94505;232.9782;216.98315;203.9516;142.9591;139.9898;125.0027;107.9903,Eawag,EA261051|EA261052|EA261053|EA261054|EA261055|EA261056|EA261057|EA261058|EA261059|EA261060|EA261061|EA261062|EA261063|EA261064;TUE00375|TUE00376|TUE00377,[M-H]-;[M-H]-,CID35|HCD15|HCD30|HCD45|HCD60|HCD75|HCD90|HCD15|HCD30|HCD45|HCD60|HCD75|HCD90|CID35;NA10.0V|NA20.0V|NA40.0V,268.9464:204.9846:231.9952|295.9572|295.9571:268.9461:204.9842|204.9847:268.9467:77.9656|77.9656:204.9843:126.0117|77.9656:126.0116:121.0406|77.9656:123.9959|295.9571|295.957:268.9461:204.9843|204.9845:268.9462:295.9571|77.9655:204.9841:126.0118|77.9655:126.0114:121.0404|77.9656:123.9959:126.0114|268.9462:204.9843:231.9951;295.957:268.9461:204.9843|268.9463:204.9843:295.9566|77.9655:126.0116:121.0407,295.9571;268.9462;231.99515;204.9843;126.0116;123.9959;121.0406;77.9656,Eawag;Env_Anal_Chem_U_Tuebingen
stpQQR954,"Dexamethasone|(8S,9R,10S,11S,13S,14S,16R,17R)-9-fluoranyl-10,13,16-trimethyl-11,17-bis(oxidanyl)-17-(2-oxidanylethanoyl)-6,7,8,11,12,14,15,16-octahydrocyclopenta[a]phenanthren-3-one",[H][C@@]12C[C@@H](C)[C@](O)(C(=O)CO)[C@@]1(C)C[C@H](O)[C@@]3(F)[C@@]2([H])CCC4=CC(=O)C=C[C@]34C,392.1999,C22H29FO5,"InChI=1S/C22H29FO5/c1-12-8-16-15-5-4-13-9-14(25)6-7-19(13,2)21(15,23)17(26)10-20(16,3)22(12,28)18(27)11-24/h6-7,9,12,15-17,24,26,28H,4-5,8,10-11H2,1-3H3/t12-,15+,16+,17+,19+,20+,21+,22+/m1/s1",CAS_RN: 50-02-2,5743,UREBDLICKHMUKA-CXSFZGCWSA-N,5541,DTXSID3020384,Positive/Negative,AU107801|AU107802|AU107803|AU107804|AU107805;EA261201|EA261202|EA261203|EA261204|EA261205|EA261206|EA261207|EA261208|EA261209|EA261210|EA261211|EA261212|EA261213|EA261214,[M+H]+;[M+H]+,CID10|CID20|CID30|CID40|CID50;CID35|HCD15|HCD30|HCD45|HCD60|HCD75|HCD90|HCD15|HCD30|HCD45|HCD60|HCD75|HCD90|CID35,149.0217:393.2083:373.2021|149.022:355.191:167.035|149.0221:237.1265|149.0218:171.0794:147.0819|149.0227:150.0272;373.2008:355.1904:337.1798|373.2009:355.1904:337.1802|237.1274:355.1903:279.1743|147.0805:237.1272:171.0805|147.0805:121.0648:171.0804|147.0805:121.0648:119.0854|121.0648:91.0543:105.0699|373.201:355.1905:337.1799|237.1273:355.1904:279.1742|147.0804:237.1272:171.0804|147.0804:121.0648:171.0805|121.0648:147.0804:119.0855|121.0647:91.0542:128.0619|373.2007:355.1902:337.1796,373.2009;355.1904;337.17985;279.17425;237.1272;171.0804;167.035;150.0272;149.022;147.0805;128.0619;121.0648;119.08545;105.0699;91.05425,Athens_Univ;Eawag,UF423251|UF423252|UF423253|UF423254,[M-H]-,HCD55|HCD80|CID35|CID55,199.1227|199.1228:363.1962|199.1227:363.1966|199.1227:363.1971,363.1966;199.1227,UFZ
stpQQR955,"Methylprednisolone|(6alpha,11beta)-11,17,21-trihydroxy-6-methylpregna-1,4-diene-3,20-dione|(6S,8S,9S,10R,11S,13S,14S,17R)-11,17-dihydroxy-17-(2-hydroxy-1-oxoethyl)-6,10,13-trimethyl-7,8,9,11,12,14,15,16-octahydro-6H-cyclopenta[a]phenanthren-3-one",[H][C@@]12CC[C@](O)(C(=O)CO)[C@@]1(C)C[C@H](O)[C@@]3([H])[C@@]2([H])C[C@]([H])(C)C4=CC(=O)C=C[C@]34C,374.2093,C22H30O5,"InChI=1S/C22H30O5/c1-12-8-14-15-5-7-22(27,18(26)11-23)21(15,3)10-17(25)19(14)20(2)6-4-13(24)9-16(12)20/h4,6,9,12,14-15,17,19,23,25,27H,5,7-8,10-11H2,1-3H3/t12-,14-,15-,17-,19+,20-,21-,22-/m0/s1",CAS_RN: 83-43-2,6741,VHRSUDSXCMQTMA-PJHHCJLFSA-N,6485,DTXSID7023300,Positive,AU107601|AU107602|AU107603|AU107604|AU107605;EA262101|EA262102|EA262103|EA262104|EA262105|EA262106|EA262107|EA262108|EA262109|EA262110|EA262111|EA262112|EA262113|EA262114,[M+H]+;[M+H]+,CID10|CID20|CID30|CID40|CID50;CID35|HCD15|HCD30|HCD45|HCD60|HCD75|HCD90|HCD15|HCD30|HCD45|HCD60|HCD75|HCD90|CID35,357.2084:375.2193:339.1975|357.2082:161.0965:253.1596|161.0969:185.0972:253.1605|161.0972:185.0976:135.0813|161.0973:135.0815:185.0976;357.206:339.1953:321.1848|357.2058:339.1956:321.1849|161.096:253.1586:357.2063|161.0959:185.0962:135.0804|161.0961:135.0803:185.0961|121.0648:105.0699:161.0961|91.0541:121.065:105.0697|357.2059:339.1956:321.1848|161.096:253.1583:135.0803|161.096:185.0959:135.0804|161.0959:135.0802:185.0959|121.0647:161.0962:209.0959|91.0541:121.0647:105.0698|357.2056:339.195:321.1847,357.206;339.1956;321.1848;253.1591;209.0959;185.0962;161.0961;135.0804;121.06475;105.0698;91.0541,Athens_Univ;Eawag,NA,NA,NA,NA,NA,NA
stpQQR956,"Diazepam|7-chloranyl-1-methyl-5-phenyl-3H-1,4-benzodiazepin-2-one",CN1C2=C(C=C(Cl)C=C2)C(=NCC1=O)C3=CC=CC=C3,284.0716,C16H13ClN2O,"InChI=1S/C16H13ClN2O/c1-19-14-8-7-12(17)9-13(14)16(18-10-15(19)20)11-5-3-2-4-6-11/h2-9H,10H2,1H3",CAS_RN: 439-14-5,3016,AAOVKJBEBIDNHE-UHFFFAOYSA-N,2908,DTXSID4020406,Positive,AU160802|AU160803|AU160804|AU160805;SM856001;EA262601|EA262602|EA262603|EA262604|EA262605|EA262606|EA262607|EA262608|EA262609|EA262610|EA262611|EA262612|EA262613|EA262614;UF408401|UF408402|UF408403|UF408404,[M+H]+;[M+H]+;[M+H]+;[M+H]+,CID20|CID30|CID40|CID50;HCD35;CID35|HCD15|HCD30|HCD45|HCD60|HCD75|HCD90|HCD15|HCD30|HCD45|HCD60|HCD75|HCD90|CID35;HCD55|HCD80|CID35|CID55,285.0793:287.0763:286.0819|285.0793:154.0408:193.0879|193.0884:154.0413:222.115|193.0881:154.0409:241.0525;285.0788:154.0417:193.0885;257.0842:154.0419:222.1152|285.0791|285.079:257.0843:154.0417|285.079:257.0839:154.0417|154.0418:193.0886:222.1152|193.0888:154.0419:222.1153|193.0885:154.0417:241.0527|285.079|285.079:257.084:182.0365|285.0791:257.0839:154.0418|154.0418:193.0886:222.1151|193.0887:154.0418:222.1151|193.0886:154.0418:241.0526|257.0842:154.0419:222.1152;285.0794:154.0421:257.0843|193.0889:154.042:241.0531|285.0795:257.0845:154.0421|257.0843:154.042:222.1154,257.0842;241.05265;222.1152;193.0886;182.0365;154.0418,Athens_Univ;CASMI_2016;Eawag;UFZ,NA,NA,NA,NA,NA,NA
stpQQR957,"D617|Verapamil metabolite D617|2-(3,4-dimethoxyphenyl)-2-isopropyl-5-(methylamino)valeronitrile",CC(C)C(CCCNC)(C#N)C1=CC(=C(C=C1)OC)OC,290.1994,C17H26N2O2,"InChI=1S/C17H26N2O2/c1-13(2)17(12-18,9-6-10-19-3)14-7-8-15(20-4)16(11-14)21-5/h7-8,11,13,19H,6,9-10H2,1-5H3",CAS_RN: 34245-14-2,93168,WLOBUUJURNEQCL-UHFFFAOYSA-N,84112,NA,Positive,AU204501|AU204502|AU204503|AU204504|AU204505;EA263701|EA263702|EA263703|EA263704|EA263705|EA263706|EA263707|EA263708|EA263709|EA263710|EA263711|EA263712|EA263713|EA263714,[M+H]+;[M+H]+,CID10|CID20|CID30|CID40|CID50;CID35|HCD15|HCD30|HCD45|HCD60|HCD75|HCD90|HCD15|HCD30|HCD45|HCD60|HCD75|HCD90|CID35,291.2072:292.2105:293.2133|291.2067:260.1643:292.2105|151.0744:177.0901:165.0902|151.0743:165.0899:177.09|151.0743:146.059:165.0898;248.1523:260.1649:243.1382|291.2073|291.2071:260.1646:248.1522|260.1647:291.2068:151.0754|151.0754:165.0911:177.0911|151.0755:165.0912:138.0678|151.0754:107.0492:146.0726|291.207:260.165:248.1529|291.207:260.1646:248.1519|291.2068:260.1644:151.0754|151.0755:165.0911:177.091|151.0755:165.0911:138.0676|151.0754:107.0492:146.0727|248.1522:260.1648:177.0911,260.16465;248.1522;243.1382;177.091;165.0911;151.0754;146.07265;146.059;138.0677;107.0492,Athens_Univ;Eawag,NA,NA,NA,NA,NA,NA
stpQQR958,"2',2'-Difluoro-2'-deoxyuridine",O=C/1NC(=O)N(\C=C\1)[C@@H]2O[C@@H]([C@@H](O)C2(F)F)CO,264.0558,C9H10F2N2O5,"InChI=1S/C9H10F2N2O5/c10-9(11)6(16)4(3-14)18-7(9)13-2-1-5(15)12-8(13)17/h1-2,4,6-7,14,16H,3H2,(H,12,15,17)/t4-,6-,7-/m1/s1",CAS_RN: 114248-23-6,9871558,FIRDBEQIJQERSE-QPPQHZFASA-N,8047247,DTXSID50891460,Positive/Negative,EA264901|EA264902|EA264903|EA264904|EA264905|EA264906|EA264907|EA264908|EA264909|EA264910|EA264911|EA264912|EA264913|EA264914,[M+H]+,CID35|HCD15|HCD30|HCD45|HCD60|HCD75|HCD90|HCD15|HCD30|HCD45|HCD60|HCD75|HCD90|CID35,113.0346|265.0629:113.0345|113.0346:265.0625:87.0241|113.0346:87.0241:107.0303|113.0346:87.0241:70.0288|113.0345:70.0287:96.008|113.0345:70.0287:96.0079|265.0629:113.0345|113.0346:265.063:87.0241|113.0346:87.0241:59.0292|113.0346:87.0241:70.0288|113.0346:70.0288:96.008|113.0345:70.0287:96.008|113.0346:96.0078,113.0346;107.0303;96.008;87.0241;70.02875;59.0292,Eawag,EA264951|EA264955|EA264956|EA264959|EA264962|EA264963,[M-H]-,CID35|HCD60|HCD75|HCD30|HCD75|HCD90,111.0203:220.0427|89.9984|111.0213:89.9988|220.0426:111.0201|89.9984|111.0209,220.04265;111.0206;89.9984,Eawag
stpQQR959,"N,O-Didesmethylvenlafaxine|4-[1-(1-Hydroxycyclohexyl)-2-(methylamino)ethyl]phenol",OC2(C(c1ccc(O)cc1)CNC)CCCCC2,249.1729,C15H23N1O2,"InChI=1S/C15H23NO2/c1-16-11-14(12-5-7-13(17)8-6-12)15(18)9-3-2-4-10-15/h5-8,14,16-18H,2-4,9-11H2,1H3",CAS_RN: 135308-74-6,3451347,MMSWXJSQCAEDLK-UHFFFAOYSA-N,2693701,NA,Positive,AU201701|AU201702|AU201703|AU201704|AU201705;EA265701|EA265702|EA265703|EA265704|EA265705|EA265706|EA265707|EA265708|EA265709|EA265710|EA265711|EA265712|EA265713|EA265714;ET120101|ET120102|ET120103|ET120104|ET120105,[M+H]+;[M+H]+;[M+H]+,"CID10|CID20|CID30|CID40|CID50;CID35|HCD15|HCD30|HCD45|HCD60|HCD75|HCD90|HCD15|HCD30|HCD45|HCD60|HCD75|HCD90|CID35;HCD15, 30, 45, 60, 70 or 90|HCD15, 30, 45, 60, 70 or 90|HCD15, 30, 45, 60, 70 or 90|HCD15, 30, 45, 60, 70 or 90|HCD15, 30, 45, 60, 70 or 90",250.1801:232.1693:251.1824|201.1264:133.0637:232.1687|133.0639:159.079:145.0636|133.0639:159.0788:145.0633|133.064:144.0559:115.0534;232.1698:201.1276:107.0487|250.1804:232.1696:201.1273|232.1696:250.1799:201.1274|133.0648:107.0492:201.1273|107.0492:133.0649:159.0805|107.0492:133.0648:159.0805|107.0492:133.0649:105.0699|250.1805:232.1699:201.1275|232.1696:250.1805:201.1274|133.0649:201.1275:107.0492|107.0491:133.0648:159.0804|107.0492:133.0648:159.0804|107.0492:133.0648:105.0699|232.1698:201.1274;107.049:133.0645:159.0802|107.049:133.0646:105.0697|107.049:105.0697:79.0542|232.1693:250.1798:201.1271|232.1693:201.1271:250.1798,232.1696;201.1274;159.0804;145.06345;144.0559;133.0648;115.0534;107.0492;105.0698;79.0542,Athens_Univ;Eawag;Eawag_Additional_Specs,NA,NA,NA,NA,NA,NA
stpQQR960,"N,N-Didesmethylvenlafaxine|1-[2-Amino-1-(4-methoxyphenyl)ethyl]cyclohexanol",OC2(C(c1ccc(OC)cc1)CN)CCCCC2,249.1729,C15H23N1O2,"InChI=1S/C15H23NO2/c1-18-13-7-5-12(6-8-13)14(11-16)15(17)9-3-2-4-10-15/h5-8,14,17H,2-4,9-11,16H2,1H3",CAS_RN: 93413-77-5,9795857,SUQHIQRIIBKNOR-UHFFFAOYSA-N,7971623,NA,Positive,AU201601|AU201602|AU201603|AU201604|AU201605;EA265801|EA265802|EA265803|EA265804|EA265805|EA265806|EA265807|EA265808|EA265809|EA265810|EA265811|EA265812|EA265813|EA265814,[M+H]+;[M+H]+,CID10|CID20|CID30|CID40|CID50;CID35|HCD15|HCD30|HCD45|HCD60|HCD75|HCD90|HCD15|HCD30|HCD45|HCD60|HCD75|HCD90|CID35,232.169:215.1425:250.1795|215.1421:147.0792:121.0639|147.0792:121.0639:173.0948|121.0639:147.0789:158.0718|121.0638:115.0535:132.0558;232.17:215.1434:203.1432|215.1433:232.1697:250.1802|215.1432:121.0649:147.0805|121.065:215.1431:147.0806|121.065:147.0806:173.0963|121.0649:147.0805:91.0542|121.0649:91.0543:147.0805|215.1432:232.1698:250.1802|215.1433:121.0649:147.0805|121.0649:215.1432:147.0806|121.0649:147.0806:173.0962|121.0649:147.0806:91.0543|121.0649:91.0543:147.0805|232.1698:215.1433:203.1431,232.1698;215.1432;203.14315;173.0962;158.0718;147.0805;132.0558;121.0649;115.0535;91.0543,Athens_Univ;Eawag,NA,NA,NA,NA,NA,NA
stpQQR961,"Fipronil|5-amino-1-[2,6-dichloro-4-(trifluoromethyl)phenyl]-4-(trifluoromethylsulfinyl)-3-pyrazolecarbonitrile",C1=C(C=C(C(=C1Cl)N2C(=C(C(=N2)C#N)S(=O)C(F)(F)F)N)Cl)C(F)(F)F,435.9387,C12H4Cl2F6N4O1S1,"InChI=1S/C12H4Cl2F6N4OS/c13-5-1-4(11(15,16)17)2-6(14)8(5)24-10(22)9(7(3-21)23-24)26(25)12(18,19)20/h1-2H,22H2",CAS_RN: 120068-37-3,3352,ZOCSXAVNDGMNBV-UHFFFAOYSA-N,3235,DTXSID4034609,Positive/Negative,EA266601|EA266602|EA266603|EA266604|EA266605|EA266606|EA266607|EA266608|EA266609|EA266610|EA266611|EA266612|EA266613|EA266614,[M+H]+,CID35|HCD15|HCD30|HCD45|HCD60|HCD75|HCD90|HCD15|HCD30|HCD45|HCD60|HCD75|HCD90|CID35,367.9502|436.9443:367.9501|367.9502:289.9765:254.9684|254.9697:289.9755:221.0092|254.9696:221.0087:262.9657|221.0086:239.9591:254.9679|239.9579:185.0317:212.9473|436.9447:367.9503|367.9501:289.9751:254.9697|254.9697:289.9756:280.9758|254.9697:221.0089:239.9584|254.9703:239.9598:262.9638|212.9477:185.0321:227.9588|367.9499,367.95015;289.97555;280.9758;262.96475;254.9697;239.95875;227.9588;221.0088;212.9475;185.0319,Eawag,AU346451|AU346452|AU346453|AU346454|AU346455;SM878353;EA266651|EA266652|EA266653|EA266654|EA266655|EA266656|EA266657|EA266658|EA266659|EA266660|EA266661|EA266662|EA266663|EA266664,[M-H]-;[M-H]-;[M-H]-,CID10|CID20|CID30|CID40|CID50;HCD35;CID35|HCD15|HCD30|HCD45|HCD60|HCD75|HCD90|HCD15|HCD30|HCD45|HCD60|HCD75|HCD90|CID35,434.9311:329.9591:436.9275|329.9604:331.9578:365.9363|249.958:329.9604:317.9689|249.9596:183.0186:277.954|183.0177:249.9585:182.0109;329.9597:249.9586:277.9534;329.959:398.954:332.9619|329.9593:434.9318:398.954|329.9592:317.9689:249.9588|249.9584:277.953:281.9928|183.0175:249.958:267.99|183.0173:163.0111:143.0047|143.0049:163.0112:113.0145|329.959:434.9304:398.954|329.959:317.9687:249.9583|249.9582:277.9532:183.0174|183.0174:249.9581:267.9889|183.0175:163.0112:143.0048|143.005:163.0111:183.0173|329.959:398.9541:332.9621,434.9311;398.954;365.9363;332.962;331.9578;329.95915;317.9689;281.9928;277.9533;267.98945;249.95835;183.01745;182.0109;163.01115;143.00485;113.0145,Athens_Univ;CASMI_2016;Eawag
stpQQR962,"Fipronil-sulfone|5-amino-1-[2,6-dichloro-4-(trifluoromethyl)phenyl]-4-(trifluoromethylsulfonyl)-3-pyrazolecarbonitrile",NC1=C(C(=NN1c1c(Cl)cc(cc1Cl)C(F)(F)F)C#N)S(=O)(=O)C(F)(F)F,451.9336,C12H4Cl2F6N4O2S1,"InChI=1S/C12H4Cl2F6N4O2S/c13-5-1-4(11(15,16)17)2-6(14)8(5)24-10(22)9(7(3-21)23-24)27(25,26)12(18,19)20/h1-2H,22H2",CAS_RN: 120068-36-2,3078139,LGHZJDKSVUTELU-UHFFFAOYSA-N,2336427,DTXSID6074750,Negative,NA,NA,NA,NA,NA,NA,SM884652;EA266751|EA266752|EA266753|EA266754|EA266755|EA266756|EA266757|EA266758|EA266759|EA266760|EA266761|EA266762|EA266763|EA266764,[M-H]-;[M-H]-,HCD35;CID35|HCD15|HCD30|HCD45|HCD60|HCD75|HCD90|HCD15|HCD30|HCD45|HCD60|HCD75|HCD90|CID35,414.9499:281.9925:243.9895;414.9498|414.9506:450.9267|414.9508:281.9928:183.0179|281.993:243.9898:183.0181|243.9898:218.0102:246.0164|243.9897:218.01:122.0037|243.9899:148.0071:122.0038|414.9496:450.9262|414.9499:281.9927:183.018|281.9929:243.9897:183.0178|243.9896:218.01:246.0161|243.9898:218.0101:148.0069|243.9899:148.0071:208.0125|414.9496,450.92645;414.9499;281.9928;246.01625;243.9898;218.01005;208.0125;183.01795;148.0071;122.00375,CASMI_2016;Eawag
stpQQR963,"Fipronil-sulfide|5-Amino-1-[2,6-dichloro-4-(trifluoromethyl)phenyl]-4-[(trifluoromethyl)sulfanyl]-1H-pyrazole-3-carbonitrile",FC(F)(F)c2cc(Cl)c(n1nc(C#N)c(SC(F)(F)F)c1N)c(Cl)c2,419.9438,C12H4Cl2F6N4S1,"InChI=1S/C12H4Cl2F6N4S/c13-5-1-4(11(15,16)17)2-6(14)8(5)24-10(22)9(7(3-21)23-24)25-12(18,19)20/h1-2H,22H2",CAS_RN: 120067-83-6,9953940,FQXWEKADCSXYOC-UHFFFAOYSA-N,8129550,DTXSID50869644,Positive/Negative,EA266801|EA266802|EA266803|EA266804|EA266805|EA266806|EA266807|EA266808|EA266809|EA266810|EA266811|EA266812|EA266813|EA266814,[M+H]+,CID35|HCD15|HCD30|HCD45|HCD60|HCD75|HCD90|HCD15|HCD30|HCD45|HCD60|HCD75|HCD90|CID35,316.9867:319.9834:335.9368|420.9506:421.9546:319.9832|420.9506:316.9868:319.9839|316.9866:420.9507:264.9807|316.9866:264.9807:289.9757|237.9697:262.965:264.9806|237.9696:262.9649:247.9538|420.9506:421.9526|420.9508:316.9869:319.9838|316.9866:420.9506:264.9806|316.9866:264.9806:289.9758|237.9696:262.9648:264.9805|237.9696:262.9649:201.993|316.9867:319.9835:335.9367,335.93675;319.9835;316.98665;289.97575;264.9806;262.9649;247.9538;237.9696;201.993,Eawag,SM884552;EA266853|EA266854|EA266859|EA266860,[M-H]-;[M-H]-,HCD35;HCD30|HCD45|HCD30|HCD45,382.9599:261.9586:217.9864;313.9637:170.0096|170.0096|313.9642:170.0095|170.0096,382.9599;313.96395;261.9586;217.9864;170.0096,CASMI_2016;Eawag
stpQQR964,"Fipronil-desulfinyl|5-amino-1-[2,6-dichloro-4-(trifluoromethyl)phenyl]-4-(trifluoromethyl)-3-pyrazolecarbonitrile",C1=C(C=C(C(=C1Cl)N2C(=C(C(=N2)C#N)C(F)(F)F)N)Cl)C(F)(F)F,387.9717,C12H4Cl2F6N4,"InChI=1S/C12H4Cl2F6N4/c13-5-1-4(11(15,16)17)2-6(14)9(5)24-10(22)8(12(18,19)20)7(3-21)23-24/h1-2H,22H2",CAS_RN: 205650-65-3,22673275,JWKXVHLIRTVXLD-UHFFFAOYSA-N,11542895,DTXSID0043719,Negative,NA,NA,NA,NA,NA,NA,SM884952;EA266951|EA266952|EA266953|EA266964,[M-H]-;[M-H]-,HCD35;CID35|HCD15|HCD30|CID35,350.9878:281.9926:330.9817;350.9876|350.9871|350.9873|350.9877,350.9876;330.9817;281.9926,CASMI_2016;Eawag