NORMAN_ID,NAME,SMILES,NEUTRAL_EXACT_MASS,FORMULA,StdInChI,CAS_RN,PUBCHEM_CID,InChIKey,CHEMSPIDER_ID,DTXSID,Preferable Ionization,MB_Records Positive Ionization,Adduct Positive Ionization,Ionisation type and collision energy Positive Ionization,Fragments Positive Ionization,Simplified_fragments_Positive,Institute Positive Ionization,MB_Records Negative Ionization,Adduct Negative Ionization,Ionisation type and collision energy Negative Ionization,Fragments Negative Ionization,Simplified_fragments_Negative,Institute Negative Ionization
stpQQR384,Valsartan|(2S)-3-methyl-2-[pentanoyl-[[4-[2-(2H-tetrazol-5-yl)phenyl]phenyl]methyl]amino]butanoic acid,CCCCC(=O)N(CC1=CC=C(C=C1)C1=CC=CC=C1C1=NNN=N1)[C@@H](C(C)C)C(O)=O,435.22704,C24H29N5O3,"InChI=1S/C24H29N5O3/c1-4-5-10-21(30)29(22(16(2)3)24(31)32)15-17-11-13-18(14-12-17)19-8-6-7-9-20(19)23-25-27-28-26-23/h6-9,11-14,16,22H,4-5,10,15H2,1-3H3,(H,31,32)(H,25,26,27,28)/t22-/m0/s1",CAS_RN: 137862-53-4,60846,ACWBQPMHZXGDFX-QFIPXVFZSA-N,54833,NA,Positive/Negative,AU111201|AU111202|AU111203|AU111204|AU111205|AU111206;SM860801;EA258301|EA258302|EA258303|EA258304|EA258305|EA258306|EA258307|EA258308|EA258309|EA258310|EA258311|EA258312|EA258313|EA258314,[M+H]+;[M+H]+;[M+H]+,CID10|CID24.3-36.5|CID30|CID40|CID50|CID20;HCD35;CID35|HCD15|HCD30|HCD45|HCD60|HCD75|HCD90|HCD15|HCD30|HCD45|HCD60|HCD75|HCD90|CID35,436.2346:418.2243:408.228|207.0926:235.0985:291.1507|207.0909:235.0967:291.1485|207.0907:180.0796:190.0641|207.0909:180.0798:178.0766|235.0966:291.1492:306.1703;207.0917:235.0977:291.1492;418.2236:408.2286:306.1715|235.0977:291.1493:306.1715|207.0917:235.0977:291.1492|207.0917:180.0808:190.0651|207.0917:180.0808:190.0651|180.0808:190.0652:178.0778|190.0652:152.062:205.0761|235.0978:291.1492:306.1714|207.0917:235.0977:291.1493|207.0917:180.0808:190.0652|207.0917:180.0808:190.0652|180.0807:190.0651:178.0777|205.076:190.0651:152.062|418.2234:408.2283:362.2227,418.2236;408.2283;362.2227;306.17145;291.1492;235.0977;207.0917;205.07605;190.0651;180.0808;178.0777;152.062,Athens_Univ;CASMI_2016;Eawag,AU111251|AU111252|AU111253|AU111254;SM860851;EA258351|EA258352|EA258353|EA258354|EA258355|EA258356|EA258358|EA258359|EA258360|EA258361|EA258362|EA258364,[M-H]-;[M-H]-;[M-H]-,CID10|CID20|CID30|CID40;HCD35;CID35|HCD15|HCD30|HCD45|HCD60|HCD75|HCD15|HCD30|HCD45|HCD60|HCD75|CID35,434.2139:435.2165|434.2135:179.0832:350.1598|179.0841|179.0844;434.2197:179.0866:116.0709;350.1619:391.2023:179.0866|434.2203:350.1636:391.2008|179.0866:350.1623:304.1565|179.0866:116.0718:192.082|179.0868:178.0793:116.0721|179.0865|434.2197:350.1621:179.0873|179.0866:350.162:304.1564|179.0867:192.0816:116.0716|179.0868:178.0788:116.0716|179.0866:178.0792:350.1636|350.1618:391.2022:179.0865,434.2197;391.2022;350.16205;304.15645;192.0818;179.0866;178.0792;116.0716,Athens_Univ;CASMI_2016;Eawag
stpQQR385,"Terbinafine|(E)-N,6,6-trimethyl-N-(naphthalen-1-ylmethyl)hept-2-en-4-yn-1-amine",CN(C\C=C\C#CC(C)(C)C)Cc1cccc2ccccc12,291.1987,C21H25N,"InChI=1S/C21H25N/c1-21(2,3)15-8-5-9-16-22(4)17-19-13-10-12-18-11-6-7-14-20(18)19/h5-7,9-14H,16-17H2,1-4H3/b9-5+",CAS_RN: 91161-71-6,1549008,DOMXUEMWDBAQBQ-WEVVVXLNSA-N,1266005,DTXSID2023640,Positive,SM860901,[M+H]+,HCD35,141.0698:292.206:93.0699,141.0698;93.0699,CASMI_2016,NA,NA,NA,NA,NA,NA
stpQQR386,"Clozapine|3-chloro-6-(4-methylpiperazin-1-yl)-5H-benzo[b][1,4]benzodiazepine",CN1CCN(CC1)C1=C2C=CC=CC2=Nc2ccc(Cl)cc2N1,326.12982,C18H19ClN4,"InChI=1S/C18H19ClN4/c1-22-8-10-23(11-9-22)18-14-4-2-3-5-15(14)20-16-7-6-13(19)12-17(16)21-18/h2-7,12,21H,8-11H2,1H3",CAS_RN: 5786-21-0,2818,ZUXABONWMNSFBN-UHFFFAOYSA-N,2716,NA,Positive,AU160001|AU160002|AU160003|AU160004|AU160005;SM861001,[M+H]+;[M+H]+,CID10|CID20|CID30|CID40|CID50;HCD35,327.1374:328.1406:329.1346|327.1374:270.0787:329.1346|270.0787:272.0763:271.0818|270.0787:192.0676:272.0763|192.0675:270.0787:193.0707;270.0793:327.1372:84.0808,272.0763;271.0818;270.0787;193.0707;192.06755;84.0808,Athens_Univ;CASMI_2016,NA,NA,NA,NA,NA,NA
stpQQR387,Indometacin|2-[1-(4-chlorobenzoyl)-5-methoxy-2-methylindol-3-yl]acetic acid,COc1ccc2n(C(=O)c3ccc(Cl)cc3)c(C)c(CC(O)=O)c2c1,357.07679,C19H16ClNO4,"InChI=1S/C19H16ClNO4/c1-11-15(10-18(22)23)16-9-14(25-2)7-8-17(16)21(11)19(24)12-3-5-13(20)6-4-12/h3-9H,10H2,1-2H3,(H,22,23)",CAS_RN: 53-86-1,3715,CGIGDMFJXJATDK-UHFFFAOYSA-N,3584,DTXSID9020740,Positive/Negative,SM861101;EA020701|EA020702|EA020703|EA020704|EA020705|EA020706|EA020707|EA020708|EA020709|EA020710|EA020711|EA020712|EA020713|EA020714,[M+H]+;[M+H]+,HCD35;CID35|HCD15|HCD30|HCD45|HCD60|HCD75|HCD90|HCD15|HCD30|HCD45|HCD60|HCD75|HCD90|CID35,138.9944:358.0841:174.0914;174.0915:138.9948:312.0788|358.0845:138.9947:174.0915|138.9945:174.0913:312.0782|138.9945:174.0912:110.9995|138.9945:139.0056:86.9996|138.9948:86.9997:110.9996|139.0057:138.9947:86.9997|358.0841:138.9946:174.0915|138.9946:174.0914:358.0853|138.9946:174.0914:86.9997|138.9946:139.006:86.9997|138.9946:139.0055:86.9996|139.0057:138.9947:86.9997|174.0914:138.9946:312.0785,312.0785;174.0914;139.0057;138.9946;110.99955;86.9997,CASMI_2016;Eawag,SM861152;EA020751|EA020752|EA020753|EA020754|EA020755|EA020756|EA020757|EA020758|EA020759|EA020760|EA020761|EA020762|EA020764,[M-H]-;[M-H]-,HCD35;CID35|HCD15|HCD30|HCD45|HCD60|HCD75|HCD90|HCD15|HCD30|HCD45|HCD60|HCD75|CID35,312.0797:282.0327:297.0561;312.0791|312.0801:270.068|297.0565:312.0788|158.0617:312.078|282.0336:158.061|158.0613|158.0613|312.0795:297.0557:270.0682|297.0561:312.0797:270.0688|158.061:297.0568:312.0773|282.0326:158.0611|158.061|312.0793,312.0793;297.0561;282.0327;270.0682;158.0611,CASMI_2016;Eawag
stpQQR388,"Tamoxifen|2-[4-[(Z)-1,2-diphenylbut-1-enyl]phenoxy]-N,N-dimethylethanamine",CC\C(=C(/c1ccccc1)c1ccc(OCCN(C)C)cc1)c1ccccc1,371.22491,C26H29NO,"InChI=1S/C26H29NO/c1-4-25(21-11-7-5-8-12-21)26(22-13-9-6-10-14-22)23-15-17-24(18-16-23)28-20-19-27(2)3/h5-18H,4,19-20H2,1-3H3/b26-25-",CAS_RN: 10540-29-1,2733526,NKANXQFJJICGDU-QPLCGJKRSA-N,2015313,DTXSID1034187,Positive,SM861203,[M+H]+,HCD35,72.0808:372.2322:70.0652,72.0808;70.0652,CASMI_2016,NA,NA,NA,NA,NA,NA
stpQQR389,"Pentoxifylline|3,7-dimethyl-1-(5-oxohexyl)purine-2,6-dione",CN1c2ncn(C)c2C(=O)N(CCCCC(C)=O)C1=O,278.13789,C13H18N4O3,"InChI=1S/C13H18N4O3/c1-9(18)6-4-5-7-17-12(19)10-11(14-8-15(10)2)16(3)13(17)20/h8H,4-7H2,1-3H3",CAS_RN: 6493-05-6,4740,BYPFEZZEUUWMEJ-UHFFFAOYSA-N,4578,DTXSID7023437,Positive,SM861402,[M+H]+,HCD35,279.1453:181.072:99.0805,181.072;99.0805,CASMI_2016,NA,NA,NA,NA,NA,NA
stpQQR390,Bicalutamide|N-[4-cyano-3-(trifluoromethyl)phenyl]-3-(4-fluorophenyl)sulfonyl-2-hydroxy-2-methylpropanamide,CC(O)(CS(=O)(=O)c1ccc(F)cc1)C(=O)Nc1ccc(C#N)c(c1)C(F)(F)F,430.06104,C18H14F4N2O4S,"InChI=1S/C18H14F4N2O4S/c1-17(26,10-29(27,28)14-6-3-12(19)4-7-14)16(25)24-13-5-2-11(9-23)15(8-13)18(20,21)22/h2-8,26H,10H2,1H3,(H,24,25)",CAS_RN: 90357-06-5,2375,LKJPYSCBVHEWIU-UHFFFAOYSA-N,2284,DTXSID2022678,Negative,NA,NA,NA,NA,NA,NA,SM861551,[M-H]-,HCD35,255.0387:185.0332:184.038,255.0387;185.0332;184.038,CASMI_2016
stpQQR391,Enalapril|(2S)-1-[(2S)-2-[[(2S)-1-ethoxy-1-oxo-4-phenylbutan-2-yl]azaniumyl]propanoyl]pyrrolidine-2-carboxylate,CCOC(=O)[C@H](CCc1ccccc1)N[C@@H](C)C(=O)N1CCC[C@H]1C(O)=O,376.19982,C20H28N2O5,"InChI=1S/C20H28N2O5/c1-3-27-20(26)16(12-11-15-8-5-4-6-9-15)21-14(2)18(23)22-13-7-10-17(22)19(24)25/h4-6,8-9,14,16-17,21H,3,7,10-13H2,1-2H3,(H,24,25)/t14-,16-,17-/m0/s1",CAS_RN: 76095-16-4,5388962,GBXSMTUPTTWBMN-XIRDDKMYSA-N,4534998,DTXSID5022982,Positive/Negative,SM861601,[M+H]+,HCD35,377.2072:234.1489:117.0699,234.1489;117.0699,CASMI_2016,SM861651,[M-H]-,HCD35,375.1925:114.0552:126.0921,375.1925;126.0921;114.0552,CASMI_2016
stpQQR392,Captopril|(2S)-1-[(2S)-2-methyl-3-sulfanylpropanoyl]pyrrolidine-2-carboxylic acid,C[C@H](CS)C(=O)N1CCC[C@H]1C(O)=O,217.07726,C9H15NO3S,"InChI=1S/C9H15NO3S/c1-6(5-14)8(11)10-4-2-3-7(10)9(12)13/h6-7,14H,2-5H2,1H3,(H,12,13)/t6-,7+/m1/s1",CAS_RN: 62571-86-2,44093,FAKRSMQSSFJEIM-RQJHMYQMSA-N,40130,DTXSID1037197,Positive/Negative,SM861901,[M+H]+,HCD35,116.0706:70.0652:75.0263,116.0706;75.0263;70.0652,CASMI_2016,SM861951,[M-H]-,HCD35,182.0823:216.0704:138.0926,216.0704;182.0823;138.0926,CASMI_2016
stpQQR393,Tetracain|2-(dimethylamino)ethyl 4-(butylamino)benzoate,CCCCNc1ccc(cc1)C(=O)OCCN(C)C,264.18378,C15H24N2O2,"InChI=1S/C15H24N2O2/c1-4-5-10-16-14-8-6-13(7-9-14)15(18)19-12-11-17(2)3/h6-9,16H,4-5,10-12H2,1-3H3",CAS_RN: 94-24-6,5411,GKCBAIGFKIBETG-UHFFFAOYSA-N,5218,DTXSID1043883,Positive,SM862001,[M+H]+,HCD35,176.107:72.0808:265.1911,176.107;72.0808,CASMI_2016,NA,NA,NA,NA,NA,NA
stpQQR394,Mesalazine|5-Aminosalicylic acid|5-amino-2-hydroxybenzoic acid,NC1=CC(C(O)=O)=C(O)C=C1,153.04259,C7H7NO3,"InChI=1S/C7H7NO3/c8-4-1-2-6(9)5(3-4)7(10)11/h1-3,9H,8H2,(H,10,11)",CAS_RN: 89-57-6,4075,KBOPZPXVLCULAV-UHFFFAOYSA-N,3933,DTXSID5024506,Positive,SM862104,[M+H]+,HCD35,136.0392:154.0498:108.0443,136.0392;108.0443,CASMI_2016,NA,NA,NA,NA,NA,NA
stpQQR395,N-Acetyl Mesalazine|5-Acetamidosalicylic acid|5-acetamido-2-hydroxybenzoic acid,CC(=O)NC1=CC=C(O)C(=C1)C(O)=O,195.05316,C9H9NO4,"InChI=1S/C9H9NO4/c1-5(11)10-6-2-3-8(12)7(4-6)9(13)14/h2-4,12H,1H3,(H,10,11)(H,13,14)",CAS_RN: 51-59-2,65512,GEFDRROBUCULOD-UHFFFAOYSA-N,58958,DTXSID80199002,Positive/Negative,SM862204,[M+H]+,HCD35,178.0498:136.0392:196.0604,178.0498;136.0392,CASMI_2016,SM862251,[M-H]-,HCD35,150.056:194.0459:132.0454,194.0459;150.056;132.0454,CASMI_2016
stpQQR396,Benzocaine|Benzocain|ethyl 4-aminobenzoate,CCOC(=O)C1=CC=C(N)C=C1,165.07898,C9H11NO2,"InChI=1S/C9H11NO2/c1-2-12-9(11)7-3-5-8(10)6-4-7/h3-6H,2,10H2,1H3",CAS_RN: 94-09-7,2337,BLFLLBZGZJTVJG-UHFFFAOYSA-N,13854242,DTXSID8021804,Positive,SM862301,[M+H]+,HCD35,138.0549:94.0651:120.0444,138.0549;120.0444;94.0651,CASMI_2016,NA,NA,NA,NA,NA,NA
stpQQR397,"Sertraline|(1S,4S)-4-(3,4-dichlorophenyl)-N-methyl-1,2,3,4-tetrahydronaphthalen-1-amine",CN[C@H]1CC[C@@H](C2=CC=C(Cl)C(Cl)=C2)C2=C1C=CC=C2,305.0738,C17H17Cl2N,"InChI=1S/C17H17Cl2N/c1-20-17-9-7-12(13-4-2-3-5-14(13)17)11-6-8-15(18)16(19)10-11/h2-6,8,10,12,17,20H,7,9H2,1H3/t12-,17-/m0/s1",CAS_RN: 79559-97-0,68617,VGKDLMBJGBXTGI-SJCJKPOMSA-N,61881,DTXSID6023577,Positive,AU150001|AU150002|AU150003|AU150004;SM862703,[M+H]+;[M+H]+,CID10|CID20|CID30|CID40;HCD35,275.0396:277.0365:306.082|158.9751:275.0383:277.0353|158.9751:160.9723:129.0689|158.9751:160.9723:129.0687;158.9762:275.0388:129.0698,277.0359;275.0388;160.9723;158.9751;129.0689,Athens_Univ;CASMI_2016,NA,NA,NA,NA,NA,NA
stpQQR398,Benzophenone-3|Oxybenzone|(2-hydroxy-4-methoxyphenyl)-phenylmethanone,COc1ccc(C(=O)c2ccccc2)c(O)c1,228.07864,C14H12O3,"InChI=1S/C14H12O3/c1-17-11-7-8-12(13(15)9-11)14(16)10-5-3-2-4-6-10/h2-9,15H,1H3",CAS_RN: 131-57-7,4632,DXGLGDHPHMLXJC-UHFFFAOYSA-N,4471,DTXSID3022405,Positive,SM814303;SM862902;EA023001|EA023002|EA023003|EA023004|EA023005|EA023006|EA023007|EA023008|EA023009|EA023010|EA023011|EA023012|EA023013|EA023014;TUE00131|TUE00132|TUE00133,[M+H]+;[M+H]+;[M+H]+;[M+H]+,HCD35;HCD35;CID35|HCD15|HCD30|HCD45|HCD60|HCD75|HCD90|HCD15|HCD30|HCD45|HCD60|HCD75|HCD90|CID35;NA10.0V|NA20.0V|NA40.0V,151.0389:229.0859:105.0334;151.0389:229.0859:105.0335;151.039:105.0335:77.0387|229.0859:151.0388:105.0335|229.0861:151.039:105.0335|151.039:105.0335:229.0858|151.039:105.0335:95.0492|151.039:105.0335:95.0492|151.039:95.0492:105.0335|229.0858:151.039:105.0333|229.0859:151.039:105.0335|151.039:105.0335:229.0858|151.0389:105.0335:95.0491|151.0389:105.0335:95.0491|151.0389:95.0491:105.0335|151.039:105.0335:77.0386;229.0861:151.0389:105.0335|151.0389:105.0335:77.0386|77.0386:95.0491:151.0387,151.039;105.0335;95.0491;77.0386,CASMI_2016;CASMI_2016;Eawag;Env_Anal_Chem_U_Tuebingen,NA,NA,NA,NA,NA,NA
stpQQR399,"Triclosan|5-chloro-2-(2,4-dichlorophenoxy)phenol",Oc1cc(Cl)ccc1Oc1ccc(Cl)cc1Cl,287.95116,C12H7Cl3O2,"InChI=1S/C12H7Cl3O2/c13-7-1-3-11(9(15)5-7)17-12-4-2-8(14)6-10(12)16/h1-6,16H",CAS_RN: 3380-34-5,5564,XEFQLINVKFYRCS-UHFFFAOYSA-N,5363,DTXSID5032498,Negative,NA,NA,NA,NA,NA,NA,SM863253;EQ016853|EQ016854|EQ016855|EQ016856|EQ016857|EQ016858,[M-H]-;[M-H]-,HCD35;HCD45|HCD60|HCD75|HCD90|HCD120|HCD150,286.9439:141.9831;141.9825|141.9827:160.9567|141.9826:160.9567|141.9824:160.9567:89.0032|89.0032:160.9565|89.0033,286.9439;160.9567;141.9826;89.0032,CASMI_2016;Eawag
stpQQR400,Chlorophene|2-Benzyl-4-chlorophenol,Oc1ccc(Cl)cc1Cc1ccccc1,218.04984,C13H11ClO,"InChI=1S/C13H11ClO/c14-12-6-7-13(15)11(9-12)8-10-4-2-1-3-5-10/h1-7,9,15H,8H2",CAS_RN: 120-32-1,8425,NCKMMSIFQUPKCK-UHFFFAOYSA-N,8118,DTXSID5020154,Negative,NA,NA,NA,NA,NA,NA,SM814053;SM863453;ETS00126;UF423051|UF423052|UF423053|UF423054,[M-H]-;[M-H]-;[M-H]-;[M-H]-,HCD35;HCD35;HCD70;HCD55|HCD80|CID35|CID55,217.0427:181.0661;217.0426:181.066:153.0709;217.0431:113.1747;217.0424|217.0425|217.0424:181.0658:153.0708|181.0659:153.0707:180.0578,217.04255;181.06595;180.0578;153.0708;113.1747,CASMI_2016;CASMI_2016;Eawag_Additional_Specs2;UFZ
stpQQR401,Ethylparaben|Ethyl 4-hydroxybenzoate|ethyl 4-hydroxybenzoate,CCOC(=O)c1ccc(O)cc1,166.06299,C9H10O3,"InChI=1S/C9H10O3/c1-2-12-9(11)7-3-5-8(10)6-4-7/h3-6,10H,2H2,1H3",CAS_RN: 121-58-4,8434,NUVBSKCKDOMJSU-UHFFFAOYSA-N,13846749,DTXSID9022528,Positive/Negative,UF423301|UF423302|UF423303|UF423304,[M+H]+,HCD55|HCD80|CID35|CID55,95.0489:121.0281:139.0387|121.0282:95.049:77.0384|139.0387:121.0283:95.049|139.0387:121.0282:95.049,139.0387;121.0282;95.049;77.0384,UFZ,SM863551;UF423351|UF423352|UF423353|UF423354,[M-H]-;[M-H]-,HCD35;HCD55|HCD80|CID35|CID55,165.0557:137.0244:136.0165;165.0556|165.0557:137.0244:92.0272|137.0244:136.0166:93.0346|137.0244:136.0166:93.0346,165.0557;137.0244;136.0166;93.0346;92.0272,CASMI_2016;UFZ
stpQQR402,"Tetrabromobisphenol A|2,6-dibromo-4-[2-(3,5-dibromo-4-hydroxyphenyl)propan-2-yl]phenol",CC(C)(c1cc(Br)c(O)c(Br)c1)c1cc(Br)c(O)c(Br)c1,539.75708,C15H12Br4O2,"InChI=1S/C15H12Br4O2/c1-15(2,7-3-9(16)13(20)10(17)4-7)8-5-11(18)14(21)12(19)6-8/h3-6,20-21H,1-2H3",CAS_RN: 79-94-7,6618,VEORPZCZECFIRK-UHFFFAOYSA-N,6366,DTXSID1026081,Negative,NA,NA,NA,NA,NA,NA,SM863853,[M-H]-,HCD35,538.7499:288.887:443.8019,538.7499;443.8019;288.887,CASMI_2016
stpQQR403,Butylparaben|Butyl 4-hydroxybenzoate,CCCCOC(=O)c1ccc(O)cc1,194.09429,C11H14O3,"InChI=1S/C11H14O3/c1-2-3-8-14-11(13)9-4-6-10(12)7-5-9/h4-7,12H,2-3,8H2,1H3",CAS_RN: 94-26-8,7184,QFOHBWFCKVYLES-UHFFFAOYSA-N,6916,DTXSID3020209,Positive/Negative,UF423401|UF423402|UF423403|UF423404,[M+H]+,HCD55|HCD80|CID35|CID55,95.049:139.0388:121.0282|83.0602:109.0395:121.0282|139.0387:151.0751|139.0387:151.0752,151.07515;139.0387;121.0282;109.0395;95.049;83.0602,UFZ,SM863955;UF423451|UF423452|UF423453|UF423454,[M-H]-;[M-H]-,HCD35;HCD55|HCD80|CID35|CID55,193.087:136.0164:137.0243;193.087:149.0039|193.087:137.0244:92.0268|137.0244:136.0166:93.0346|137.0244:136.0166:93.0346,193.087;149.0039;137.0244;136.0166;93.0346;92.0268,CASMI_2016;UFZ
stpQQR404,"Tetrachlorosalicylanilide|TCSA|3,5-dichloro-N-(3,4-dichlorophenyl)-2-hydroxybenzamide",Oc1c(Cl)cc(Cl)cc1C(=O)Nc1ccc(Cl)c(Cl)c1,348.92309,C13H7Cl4NO2,"InChI=1S/C13H7Cl4NO2/c14-6-3-8(12(19)11(17)4-6)13(20)18-7-1-2-9(15)10(16)5-7/h1-5,19H,(H,18,20)",CAS_RN: 1154-59-2,14385,SJQBHPJLLIJASD-UHFFFAOYSA-N,13743,DTXSID4040767,NA,NA,NA,NA,NA,NA,NA,NA,NA,NA,NA,NA,NA
stpQQR405,"2,4-Dichlorophenol",Oc1ccc(Cl)cc1Cl,161.96392,C6H4Cl2O,"InChI=1S/C6H4Cl2O/c7-4-1-2-6(9)5(8)3-4/h1-3,9H",CAS_RN: 120-83-2,8449,HFZWRUODUSTPEG-UHFFFAOYSA-N,8140,DTXSID1020439,Negative,NA,NA,NA,NA,NA,NA,SM864251,[M-H]-,HCD35,160.9567:124.9795:132.9815,160.9567;132.9815;124.9795,CASMI_2016
stpQQR406,"Bisphenol S|4,4`-Sulfonyldiphenol|4-(4-hydroxyphenyl)sulfonylphenol",Oc1ccc(cc1)S(=O)(=O)c1ccc(O)cc1,250.02998,C12H10O4S,"InChI=1S/C12H10O4S/c13-9-1-5-11(6-2-9)17(15,16)12-7-3-10(14)4-8-12/h1-8,13-14H",CAS_RN: 80-09-1,6626,VPWNQTHUCYMVMZ-UHFFFAOYSA-N,6374,DTXSID3022409,Positive/Negative,SM864401;UF424001|UF424002|UF424003|UF424004,[M+H]+;[M+H]+,HCD35;HCD55|HCD80|CID35|CID55,251.0372:156.9954:121.0396;121.0394:156.9952:109.0283|121.0393:93.0332:109.0281|156.995:251.0368:109.0282|156.995:109.0282:121.0394,156.9951;121.0394;109.0282;93.0332,CASMI_2016;UFZ,SM864456;UF424051|UF424052|UF424053|UF424054,[M-H]-;[M-H]-,HCD35;HCD55|HCD80|CID35|CID55,249.0229:155.9887:185.0613;249.0225|249.0225:108.0221|108.0217:155.9886:185.0608|108.0217:155.9886:185.0608,249.0225;185.0608;155.9886;108.0217,CASMI_2016;UFZ
stpQQR407,Propylparaben|Propyl 4-hydroxybenzoate,CCCOC(=O)c1ccc(O)cc1,180.07864,C10H12O3,"InChI=1S/C10H12O3/c1-2-7-13-10(12)8-3-5-9(11)6-4-8/h3-6,11H,2,7H2,1H3",CAS_RN: 94-13-3,7175,QELSKZZBTMNZEB-UHFFFAOYSA-N,6907,DTXSID4022527,Negative,NA,NA,NA,NA,NA,NA,SM864653,[M-H]-,HCD35,179.0714:136.0166:137.0244,179.0714;137.0244;136.0166,CASMI_2016
stpQQR408,Bromochlorophen,Oc1c(Br)cc(Cl)cc1Cc1cc(Cl)cc(Br)c1O,423.82681,C13H8Br2Cl2O2,"InChI=1S/C13H8Br2Cl2O2/c14-10-4-8(16)2-6(12(10)18)1-7-3-9(17)5-11(15)13(7)19/h2-5,18-19H,1H2",CAS_RN: 15435-29-7,84907,TYBHZVUFOINFDV-UHFFFAOYSA-N,76597,DTXSID90165596,Negative,NA,NA,NA,NA,NA,NA,SM864952;EQ329851|EQ329852|EQ329853|EQ329854|EQ329855|EQ329856,[M-H]-;[M-H]-,HCD35;HCD15|HCD30|HCD45|HCD60|HCD75|HCD90,204.9061:422.8197:342.8932;422.8196:204.9059:78.9189|204.9061:78.9189:422.8195|204.9061:78.9189:342.8929|78.9189:204.906:124.9799|78.9189:204.906:124.9799|78.9189:204.9061:124.9799,422.8196;342.89305;204.9061;124.9799;78.9189,CASMI_2016;Eawag
stpQQR409,4-Bromophenol,Oc1ccc(Br)cc1,171.95238,C6H5BrO,"InChI=1S/C6H5BrO/c7-5-1-3-6(8)4-2-5/h1-4,8H",CAS_RN: 106-41-2,7808,GZFGOTFRPZRKDS-UHFFFAOYSA-N,13842573,DTXSID3051543,Negative,NA,NA,NA,NA,NA,NA,SM865051,[M-H]-,HCD35,170.9451:142.9466,170.9451;142.9466,CASMI_2016
stpQQR410,Dichlorophen,OC1=CC=C(Cl)C=C1CC1=C(O)C=CC(Cl)=C1,268.00578,C13H10Cl2O2,"InChI=1S/C13H10Cl2O2/c14-10-1-3-12(16)8(6-10)5-9-7-11(15)2-4-13(9)17/h1-4,6-7,16-17H,5H2",CAS_RN: 97-23-4,3037,MDNWOSOZYLHTCG-UHFFFAOYSA-N,2929,DTXSID6021824,Negative,NA,NA,NA,NA,NA,NA,SM865252;EQ364851|EQ364852|EQ364853|EQ364854|EQ364855|EQ364856|EQ364857|EQ364858|EQ364859,[M-H]-;[M-H]-,HCD35;HCD15|HCD30|HCD45|HCD60|HCD75|HCD90|HCD120|HCD150|HCD180,126.9952:266.9985:231.0213;266.9985:126.9955|126.9956:266.9986:231.0218|126.9956:266.9985:231.0217|126.9956:91.019:231.0215|126.9956:91.019|126.9956:91.0189|126.9957:91.019:65.0032|126.9956:91.019:65.0033|65.0033:91.0188:126.9956,266.9985;231.0216;126.9956;91.019;65.0033,CASMI_2016;Eawag
stpQQR411,"Isophorone diamine|3-(aminomethyl)-3,5,5-trimethylcyclohexan-1-amine",CC1(C)CC(N)CC(C)(CN)C1,170.1783,C10H22N2,"InChI=1S/C10H22N2/c1-9(2)4-8(12)5-10(3,6-9)7-11/h8H,4-7,11-12H2,1-3H3",CAS_RN: 2855-13-2,17857,RNLHGQLZWXBQNY-UHFFFAOYSA-N,16867,DTXSID6027503,Positive,SM865504;UF413401|UF413402|UF413403|UF413404,[M+H]+;[M+H]+,HCD35;HCD55|HCD80|CID35|CID55,154.1589:171.1855:137.1324;154.1596:137.133:95.0859|95.0858:81.0702:137.133|154.1597:89.0713:107.0608|154.1596:89.0714:72.0445,154.1596;137.133;107.0608;95.08585;89.07135;81.0702;72.0445,CASMI_2016;UFZ,NA,NA,NA,NA,NA,NA
stpQQR412,4`-Aminoacetanilide|N-(4-aminophenyl)acetamide,CC(=O)Nc1ccc(N)cc1,150.07931,C8H10N2O,"InChI=1S/C8H10N2O/c1-6(11)10-8-4-2-7(9)3-5-8/h2-5H,9H2,1H3,(H,10,11)",CAS_RN: 122-80-5,31230,CHMBIJAOCISYEW-UHFFFAOYSA-N,10297844,DTXSID7024455,Positive,SM805302;UF413501|UF413502|UF413503|UF413504,[M+H]+;[M+H]+,HCD35;HCD55|HCD80|CID35|CID55,151.0865:109.0759:92.0494;109.0764:151.0872:92.0499|109.0764:92.0498:108.0686|109.0763:151.0871:133.0765|109.0764:110.0603:133.0765,133.0765;110.0603;109.0764;108.0686;92.0498,CASMI_2016;UFZ,NA,NA,NA,NA,NA,NA
stpQQR413,"2,4-Diaminobenzenesulfonic acid",Nc1ccc(c(N)c1)S(O)(=O)=O,188.02556,C6H8N2O3S,"InChI=1S/C6H8N2O3S/c7-4-1-2-6(5(8)3-4)12(9,10)11/h1-3H,7-8H2,(H,9,10,11)",CAS_RN: 88-63-1,66623,JVMSQRAXNZPDHF-UHFFFAOYSA-N,59990,DTXSID3044465,Negative,NA,NA,NA,NA,NA,NA,SM809756;SM865753,[M-H]-;[M-H]-,HCD35;HCD35,187.0183;187.0183:123.0559:129.0103,187.0183;129.0103;123.0559,CASMI_2016;CASMI_2016