NORMAN_ID,NAME,SMILES,NEUTRAL_EXACT_MASS,FORMULA,StdInChI,CAS_RN,PUBCHEM_CID,InChIKey,CHEMSPIDER_ID,DTXSID,Preferable Ionization,MB_Records Positive Ionization,Adduct Positive Ionization,Ionisation type and collision energy Positive Ionization,Fragments Positive Ionization,Simplified_fragments_Positive,Institute Positive Ionization,MB_Records Negative Ionization,Adduct Negative Ionization,Ionisation type and collision energy Negative Ionization,Fragments Negative Ionization,Simplified_fragments_Negative,Institute Negative Ionization
stpQQR986,"Perfluoroundecanoic acid| 2,2,3,3,4,4,5,5,6,6,7,7,8,8,9,9,10,10,11,11,11-heneicosafluoroundecanoic acid|EINECS 218-165-4",OC(=O)C(F)(F)C(F)(F)C(F)(F)C(F)(F)C(F)(F)C(F)(F)C(F)(F)C(F)(F)C(F)(F)C(F)(F)F,563.9641,C11HF21O2,"InChI=1S/C11HF21O2/c12-2(13,1(33)34)3(14,15)4(16,17)5(18,19)6(20,21)7(22,23)8(24,25)9(26,27)10(28,29)11(30,31)32/h(H,33,34)",CAS_RN: 2058-94-8,77222,SIDINRCMMRKXGQ-UHFFFAOYSA-N,69649,DTXSID8047553,Negative,NA,NA,NA,NA,NA,NA,EA272251|EA272252,[M-H]-,CID35|HCD15,518.9658|518.9647,518.96525,Eawag
stpQQR987,"N-Ethylperfluoroctansulfonamid (N-EtFOSA)|1-Octanesulfonamide, N-ethyl-1,1,2,2,3,3,4,4,5,5,6,6,7,7,8,8,8-heptadecafluoro-|N-ethyl-1,1,2,2,3,3,4,4,5,5,6,6,7,7,8,8,8-heptadecafluoro-1-octanesulfonamide",FC(F)(C(F)(F)C(F)(F)C(F)(F)C(F)(F)C(F)(F)C(F)(F)C(F)(F)F)S(=O)(=O)NCC,526.9848,C10H6F17NO2S,"InChI=1S/C10H6F17NO2S/c1-2-28-31(29,30)10(26,27)8(21,22)6(17,18)4(13,14)3(11,12)5(15,16)7(19,20)9(23,24)25/h28H,2H2,1H3",CAS_RN: 4151-50-2,77797,CCEKAJIANROZEO-UHFFFAOYSA-N,70194,DTXSID1032646,Negative,NA,NA,NA,NA,NA,NA,EA273151|EA273153,[M-H]-,CID35|HCD30,218.9863:168.9895:361.9839|218.9865,361.9839;218.9864;168.9895,Eawag
stpQQR988,"6:2 fluorotelomer unsaturated carboxylic acid|(2E)-3,4,4,5,5,6,6,7,7,8,8,8-Dodecafluoro-2-octenoic acid|2-Octenoic acid, 3,4,4,5,5,6,6,7,7,8,8,8-dodecafluoro-, (2E)-",FC(F)(C(/F)=C\C(O)=O)C(F)(F)C(F)(F)C(F)(F)C(F)(F)F,357.9863,C8H2F12O2,"InChI=1S/C8H2F12O2/c9-2(1-3(21)22)4(10,11)5(12,13)6(14,15)7(16,17)8(18,19)20/h1H,(H,21,22)/b2-1+",CAS_RN: NA,NA,BKOBFLVYTXYFQZ-OWOJBTEDSA-N,28290257,DTXSID30891463,Negative,NA,NA,NA,NA,NA,NA,EA273251|EA273252|EA273253|EA273254|EA273255|EA273256|EA273257|EA273258|EA273259|EA273260|EA273261|EA273262|EA273263,[M-H]-,CID35|HCD15|HCD30|HCD45|HCD60|HCD75|HCD90|HCD15|HCD30|HCD45|HCD60|HCD75|HCD90,292.9837|292.9832|292.9829|292.9826|292.9836:242.987:92.9958|242.9862:92.9962|92.9958|292.9825|292.9828|292.9827:242.9858|292.9835:242.9864:92.996|242.9863:92.9958|92.9958,292.9829;242.9863;92.9958,Eawag
stpQQR989,"8:2 fluorotelomer unsaturated carboxylic acid|(2Z)-3,4,4,5,5,6,6,7,7,8,8,9,9,10,10,10-Hexadecafluoro-2-decenoic acid",FC(F)(C(/F)=C/C(O)=O)C(F)(F)C(F)(F)C(F)(F)C(F)(F)C(F)(F)C(F)(F)F,457.9799,C10H2F16O2,"InChI=1S/C10H2F16O2/c11-2(1-3(27)28)4(12,13)5(14,15)6(16,17)7(18,19)8(20,21)9(22,23)10(24,25)26/h1H,(H,27,28)/b2-1-",CAS_RN: NA,11733192,WHZXTVOEGZRRJM-UPHRSURJSA-N,9907905,NA,Negative,NA,NA,NA,NA,NA,NA,EA273351|EA273353|EA273359,[M-H]-,CID35|HCD30|HCD30,392.9755|392.9764|392.976,392.976,Eawag
stpQQR990,Azoxystrobin (free acid),O=C(O)/C(=C\OC)c3ccccc3Oc2cc(Oc1ccccc1C#N)ncn2,389.1012,C21H15N3O5,"InChI=1S/C21H15N3O5/c1-27-12-16(21(25)26)15-7-3-5-9-18(15)29-20-10-19(23-13-24-20)28-17-8-4-2-6-14(17)11-22/h2-10,12-13H,1H3,(H,25,26)/b16-12-",CAS_RN: 1185255-09-7,21584515,IKCXDZCEWZARFL-VBKFSLOCSA-N,28184900,NA,Positive/Negative,EA273401|EA273402|EA273403|EA273404|EA273405|EA273406|EA273407|EA273408|EA273409|EA273410|EA273411|EA273412|EA273413|EA273414,[M+H]+,CID35|HCD15|HCD30|HCD45|HCD60|HCD75|HCD90|HCD15|HCD30|HCD45|HCD60|HCD75|HCD90|CID35,372.098:346.1187:390.1085|372.0983:390.1089:346.1189|372.0984:344.103:316.108|329.0796:344.1031:372.0978|329.0795:183.0553:328.0718|172.0392:156.0444:200.0341|172.0393:156.0444:130.04|372.0978:390.1085:346.1186|372.0979:344.103:316.1081|329.0798:344.1031:372.0971|329.0797:183.0553:328.0718|172.0393:156.0443:200.0342|172.0394:156.0444:144.0445|372.0982:346.1187,372.09795;346.1187;344.10305;329.07965;328.0718;316.10805;200.03415;183.0553;172.0393;156.0444;144.0445;130.04,Eawag,EA273451|EA273452|EA273453|EA273458|EA273459,[M-H]-,CID35|HCD15|HCD30|HCD15|HCD30,212.0466:142.041:168.0566|212.0461:312.0774|168.0568:142.0411|212.0462:312.0779:142.0405|212.0467:168.0561:142.0408,312.07765;212.0464;168.0566;142.0409,Eawag
stpQQR991,"Ranitidine-S-oxide|1,1-Ethenediamine, N-(2-(((5-((dimethylamino)methyl)-2-furanyl)methyl)sulfinyl)ethyl)-N'-methyl-2-nitro-",[O-][N+](=O)\C=C(/NC)NCCS(=O)Cc1oc(cc1)CN(C)C,330.1362,C13H22N4O4S,"InChI=1S/C13H22N4O4S/c1-14-13(9-17(18)19)15-6-7-22(20)10-12-5-4-11(21-12)8-16(2)3/h4-5,9,14-15H,6-8,10H2,1-3H3/b13-9+",CAS_RN: 73851-70-4,3033889,SKHXRNHSZTXSLP-UKTHLTGXSA-N,2298464,NA,Positive/Negative,AU219301|AU219302|AU219303|AU219304|AU219305;EA273701|EA273702|EA273703|EA273704|EA273705|EA273706|EA273707|EA273708|EA273709|EA273710|EA273711|EA273712|EA273713|EA273714,[M+H]+;[M+H]+,CID10|CID20|CID30|CID40|CID50;CID35|HCD15|HCD30|HCD45|HCD60|HCD75|HCD90|HCD15|HCD30|HCD45|HCD60|HCD75|HCD90|CID35,331.1437:332.1466:333.1412|138.0903:139.0934:192.0423|138.0902:192.0426:146.0496|138.0901:130.0568:146.0495|138.0905:130.0551:146.0492;138.0915:188.0741:156.1019|331.1436:138.0913:110.0965|138.0914:110.0965:94.0414|110.0965:138.0914:94.0414|110.0965:94.0414:138.0913|110.0966:94.0414:58.0652|94.0413:110.0964:58.0651|331.1437:138.0913:110.0964|138.0915:110.0965:94.0414|110.0965:138.0915:94.0414|110.0965:94.0414:138.0914|110.0965:94.0414:82.0652|94.0414:110.0965:58.0651|138.0914:188.0742:156.102,192.04245;188.07415;156.10195;146.0495;139.0934;138.09135;130.05595;110.0965;94.0414;82.0652;58.0651,Athens_Univ;Eawag,EA273751|EA273755|EA273758|EA273759,[M-H]-,CID35|HCD60|HCD15|HCD30,116.0467:191.0369:144.0362|116.0462|116.0466:174.9582:144.036|116.0464,191.0369;174.9582;144.0361;116.0465,Eawag
stpQQR992,"Ranitidine N-oxide|1,1-Ethenediamine, N-(2-(((5-((dimethylamino)methyl)-2-furanyl)methyl)thio)ethyl)-N'-methyl-2-nitro-, N-oxide",c1(oc(CSCCN\C(=C\[N+](=O)[O-])NC)cc1)CN(C)(C)=O,330.1362,C13H22N4O4S,"InChI=1S/C13H22N4O4S/c1-14-13(8-16(18)19)15-6-7-22-10-12-5-4-11(21-12)9-17(2,3)20/h4-5,8,14-15H,6-7,9-10H2,1-3H3/b13-8+",CAS_RN: 73857-20-2,3033888,DFJVUWAHTQPQCV-MDWZMJQESA-N,2298463,NA,Positive/Negative,AU219401|AU219402|AU219403|AU219404|AU219405;EA273801|EA273802|EA273803|EA273804|EA273805|EA273806|EA273807|EA273808|EA273809|EA273810|EA273811|EA273812|EA273813|EA273814,[M+H]+;[M+H]+,CID10|CID20|CID30|CID40|CID50;CID35|HCD15|HCD30|HCD45|HCD60|HCD75|HCD90|HCD15|HCD30|HCD45|HCD60|HCD75|HCD90|CID35,331.144:270.0908:176.0481|176.0476:224.0968:270.0901|176.0481:130.0553:125.0048|125.0049:130.0552:148.0747|125.0049:148.0747:130.055;270.0909:124.0757:176.0488|331.1433:270.0907:176.0488|176.049:130.056:224.098|125.0056:102.0372:176.0488|102.0372:125.0055:130.0558|102.0372:125.0055:81.0335|81.0334:102.0371:97.076|331.1433:270.0906:176.0487|176.0488:130.0559:224.0977|125.0056:102.0372:176.0487|102.0372:125.0056:130.0559|102.0372:125.0056:81.0335|81.0335:102.0372:97.076|270.091:124.0757:176.0488,270.09075;224.0977;176.0488;148.0747;130.0558;125.0055;124.0757;102.0372;97.076;81.0335,Athens_Univ;Eawag,EA273851|EA273853,[M-H]-,CID35|HCD30,222.0833:142.0622:125.0067|329.1293,329.1293;222.0833;142.0622;125.0067,Eawag
stpQQR993,"Climbazol|Climbazole|1-(4-chloranylphenoxy)-1-imidazol-1-yl-3,3-dimethyl-butan-2-one",CC(C)(C)C(=O)C(N1C=CN=C1)OC2=CC=C(C=C2)Cl,292.0979,C15H17ClN2O2,"InChI=1S/C15H17ClN2O2/c1-15(2,3)13(19)14(18-9-8-17-10-18)20-12-6-4-11(16)5-7-12/h4-10,14H,1-3H3",CAS_RN: 38083-17-9,37907,OWEGWHBOCFMBLP-UHFFFAOYSA-N,34752,DTXSID6046555,Positive/Negative,SM818301;EA273901|EA273902|EA273903|EA273904|EA273905|EA273906|EA273907|EA273908|EA273909|EA273910|EA273911|EA273912|EA273913|EA273914,[M+H]+;[M+H]+,HCD35;CID35|HCD15|HCD30|HCD45|HCD60|HCD75|HCD90|HCD15|HCD30|HCD45|HCD60|HCD75|HCD90|CID35,293.1053:69.07:197.0729;197.0729:225.0677:137.1073|293.1055:197.0723:69.0695|197.0727:293.1051:69.0699|197.0727:69.0699:141.0101|69.0699:141.0101:126.9945|126.9944:69.0699:98.9996|98.9996:139.0057:126.9945|293.1053:197.0726:225.0674|197.0728:293.1054:69.0699|197.0727:69.0699:141.0102|69.0699:141.0102:126.9945|69.0698:126.9944:98.9995|98.9996:139.0057:57.0698|197.0728:225.0677:137.1073,225.0677;197.0727;141.01015;139.0057;137.1073;126.9945;98.9996;69.0699;57.0698,CASMI_2016;Eawag,EA273951|EA273952|EA273953|EA273954|EA273955|EA273956|EA273957|EA273958|EA273959|EA273960|EA273961|EA273962|EA273964,[M-H]-,CID35|HCD15|HCD30|HCD45|HCD60|HCD75|HCD90|HCD15|HCD30|HCD45|HCD60|HCD75|CID35,234.02:221.0125:233.0117|67.0304|67.0303|67.0304|67.0303|67.0302|67.0302|67.0303|67.0302|67.0302|67.0302|67.0303|234.02:263.0954:221.0126,263.0954;234.02;233.0117;221.01255;67.0303,Eawag
stpQQR994,"Tritosulfuron|N-{[4-methoxy-6-(trifluoromethyl)-1,3,5-triazin-2-yl]carbamoyl}-2-(trifluoromethyl)benzenesulfonamide",c1c(S(=O)(=O)NC(Nc2nc(nc(n2)C(F)(F)F)OC)=O)c(C(F)(F)F)ccc1,445.0279,C13H9F6N5O4S,"InChI=1S/C13H9F6N5O4S/c1-28-11-21-8(13(17,18)19)20-9(23-11)22-10(25)24-29(26,27)7-5-3-2-4-6(7)12(14,15)16/h2-5H,1H3,(H2,20,21,22,23,24,25)",CAS_RN: 142469-14-5,11657899,KVEQCVKVIFQSGC-UHFFFAOYSA-N,9832635,DTXSID9057975,Positive/Negative,EA274001|EA274002|EA274003|EA274004|EA274005|EA274006|EA274007|EA274008|EA274009|EA274010|EA274011|EA274012|EA274013|EA274014,[M+H]+,CID35|HCD15|HCD30|HCD45|HCD60|HCD75|HCD90|HCD15|HCD30|HCD45|HCD60|HCD75|HCD90|CID35,221.028:195.0489:403.0295|446.0354:195.049:221.0282|195.049:221.0282:208.9881|195.0489:145.026:221.0282|145.026:110.0212:195.0488|145.0259:110.0212:127.0478|145.026:110.0213:123.0354|446.0351:195.0489:221.0281|195.0488:221.0281:208.988|195.0488:145.026:221.0281|145.026:110.0213:195.0489|145.026:110.0212:127.0478|145.026:110.0212:123.0353|221.028:195.0487:403.0292,403.02935;221.0281;208.98805;195.0489;145.026;127.0478;123.03535;110.0212,Eawag,EA274051|EA274052|EA274053|EA274054|EA274055|EA274056|EA274057|EA274058|EA274059|EA274060|EA274061|EA274062|EA274063|EA274064,[M-H]-,CID35|HCD15|HCD30|HCD45|HCD60|HCD75|HCD90|HCD15|HCD30|HCD45|HCD60|HCD75|HCD90|CID35,193.0346:224.0001:136.0129|193.0348:444.0192:224.001|193.0347:224.0003:194.0385|193.0347:136.0126:66.0098|193.0348:66.0099:161.0084|193.0346:66.0099:161.0083|66.0099:161.0083:136.0131|193.0347:444.021:223.9996|193.0347:224.0005|193.0347:66.0098:136.0131|193.0346:66.0098:161.0083|193.0345:66.0098:161.0083|66.0099:161.0082:136.013|193.0345:224:161.0083,444.0201;224.0002;194.0385;193.0347;161.0083;136.013;66.00985,Eawag
stpQQR995,"Propazine|6-chloranyl-N2,N4-di(propan-2-yl)-1,3,5-triazine-2,4-diamine",c1(nc(nc(n1)Cl)NC(C)C)NC(C)C,229.1094,C9H16N5Cl,"InChI=1S/C9H16ClN5/c1-5(2)11-8-13-7(10)14-9(15-8)12-6(3)4/h5-6H,1-4H3,(H2,11,12,13,14,15)",CAS_RN: 139-40-2,4937,WJNRPILHGGKWCK-UHFFFAOYSA-N,4768,DTXSID3021196,Positive,EA274101|EA274102|EA274103|EA274104|EA274105|EA274106|EA274107|EA274108|EA274109|EA274110|EA274111|EA274112|EA274113|EA274114,[M+H]+,CID35|HCD15|HCD30|HCD45|HCD60|HCD75|HCD90|HCD15|HCD30|HCD45|HCD60|HCD75|HCD90|CID35,188.0699:146.0228:152.1184|230.1167|230.117:188.0702:146.0232|188.0699:230.1165:146.0228|146.0229:188.0701:104.0011|146.0228:104.001:79.0058|146.0229:104.0012:79.0059|230.1168:188.0702:146.0225|230.1168:188.0699:146.0226|188.0699:230.1168:146.0229|146.0228:188.0698:104.001|146.0228:104.001:79.0058|146.0229:104.0011:79.0058|188.0699:146.0229:152.1183,188.0699;152.11835;146.0228;104.00105;79.0058,Eawag,NA,NA,NA,NA,NA,NA
stpQQR996,Thiopental,C1([C@@](C(N=C(N1)S)=O)([C@@H](CCC)C)CC)=O,242.1089,C11H18N2O2S,"InChI=1S/C11H18N2O2S/c1-4-6-7(3)11(5-2)8(14)12-10(16)13-9(11)15/h7H,4-6H2,1-3H3,(H2,12,13,14,15,16)",CAS_RN: 76-75-5,3000715,IUJDSEJGGMCXSG-UHFFFAOYSA-N,2272258,DTXSID1023653,Negative,NA,NA,NA,NA,NA,NA,EA274251|EA274252|EA274253|EA274254|EA274255|EA274256|EA274257|EA274258|EA274259|EA274260|EA274261|EA274262|EA274263|EA274264,[M-H]-,CID35|HCD15|HCD30|HCD45|HCD60|HCD75|HCD90|HCD15|HCD30|HCD45|HCD60|HCD75|HCD90|CID35,100.9816:138.1289|241.1017:57.9757|241.1015:57.9758|57.9758:241.1011|57.9757|57.9758|57.9758|241.1017:57.9757|241.1014:57.9758|57.9758:241.1013|57.9758|57.9757|57.9757|100.9815:138.129,241.10145;138.12895;100.98155;57.9758,Eawag
stpQQR997,"Oxazepam|7-chloranyl-3-oxidanyl-5-phenyl-1,3-dihydro-1,4-benzodiazepin-2-one",C1=CC=C(C=C1)C2=NC(C(=O)NC3=C2C=C(C=C3)Cl)O,286.0509,C15H11ClN2O2,"InChI=1S/C15H11ClN2O2/c16-10-6-7-12-11(8-10)13(9-4-2-1-3-5-9)18-15(20)14(19)17-12/h1-8,15,20H,(H,17,19)",CAS_RN: 604-75-1,4616,ADIMAYPTOBDMTL-UHFFFAOYSA-N,4455,DTXSID1021087,Positive/Negative,SM860402;EA274301|EA274302|EA274303|EA274304|EA274305|EA274306|EA274307|EA274308|EA274309|EA274310|EA274311|EA274312|EA274313|EA274314,[M+H]+;[M+H]+,HCD35;CID35|HCD15|HCD30|HCD45|HCD60|HCD75|HCD90|HCD15|HCD30|HCD45|HCD60|HCD75|HCD90|CID35,241.0526:287.0581:269.0475;269.0479:241.0525:166.0054|287.0583:269.0478:104.05|269.0476:287.0579:241.0526|241.0528:269.0474:231.0683|241.053:104.0496:231.0685|241.0527:104.0495:163.0057|104.0495:241.0528:163.0058|287.0585:269.0476:241.0532|287.0583:269.0478:241.0527|241.0529:269.0476:231.0684|241.0529:104.0495:231.0684|241.0527:104.0495:163.0058|104.0495:241.0526:163.0058|269.0478:241.0527,269.0476;241.0527;231.0684;166.0054;163.0058;104.0495,CASMI_2016;Eawag,SM860452;EA274351|EA274352|EA274353|EA274354|EA274356|EA274358|EA274359|EA274360|EA274361|EA274362|EA274364,[M-H]-;[M-H]-,HCD35;CID35|HCD15|HCD30|HCD45|HCD75|HCD15|HCD30|HCD45|HCD60|HCD75|CID35,285.0437:257.0489:179.0013;257.0488:242.0378:179.0018|285.0437:257.0485|285.0435:257.0485:242.0383|242.0382:179.0017:241.03|151.0065|285.0436:257.0485|285.0434:257.0483:179.0021|241.0297:257.048|151.0073:241.0305|241.0305|257.0487:242.0374,285.0436;257.0485;242.038;241.03025;179.00175;151.0069,CASMI_2016;Eawag
stpQQR998,"Morphine|(5alpha,6alpha)-17-Methyl-7,8-didehydro-4,5-epoxymorphinan-3,6-diol",CN1CC[C@]23c4c5ccc(c4O[C@H]2[C@H](C=C[C@H]3[C@H]1C5)O)O,285.1365,C17H19NO3,"InChI=1S/C17H19NO3/c1-18-7-6-17-10-3-5-13(20)16(17)21-15-12(19)4-2-9(14(15)17)8-11(10)18/h2-5,10-11,13,16,19-20H,6-8H2,1H3/t10-,11+,13-,16-,17-/m0/s1",CAS_RN: 57-27-2,5288826,BQJCRHHNABKAKU-KBQPJGBKSA-N,4450907,DTXSID9023336,Positive,AU158001|AU158002|AU158003|AU158004|AU158005;EA274401|EA274402|EA274403|EA274404|EA274405|EA274406|EA274407|EA274408|EA274409|EA274410|EA274411|EA274412|EA274413|EA274414,[M+H]+;[M+H]+,CID10|CID20|CID30|CID40|CID50;CID35|HCD15|HCD30|HCD45|HCD60|HCD75|HCD90|HCD15|HCD30|HCD45|HCD60|HCD75|HCD90|CID35,286.1456:287.1488:288.1514|286.1457:287.1489:229.0869|286.1464:287.1492:201.0923|165.0707:181.0656:286.1458|153.0707:165.071:181.0663;201.0912:229.0861:268.1332|286.1441|286.144:229.0859:201.0919|286.1439:201.0911:229.0861|286.1437:201.0912:185.0598|181.0648:165.0699:153.0699|153.0699:165.07:181.065|286.144|286.1442:229.0862:268.1335|286.1442:201.0911:229.086|286.1439:201.0911:185.0598|181.0648:165.0699:185.0597|153.07:165.07:157.0649|201.0912:229.0861:268.1333,268.1333;229.0861;201.0912;185.0598;181.065;165.07;157.0649;153.06995,Athens_Univ;Eawag,NA,NA,NA,NA,NA,NA
stpQQR999,"Acesulfame|2,2-diketo-6-methyl-oxathiazin-4-one",S1(NC(C=C(O1)C)=O)(=O)=O,162.9939,C4H5NO4S,"InChI=1S/C4H5NO4S/c1-3-2-4(6)5-10(7,8)9-3/h2H,1H3,(H,5,6)",CAS_RN: 33665-90-6,36573,YGCFIWIQZPHFLU-UHFFFAOYSA-N,33607,DTXSID0048006,Negative,NA,NA,NA,NA,NA,NA,EA275651|EA275652|EA275653|EA275654|EA275655|EA275656|EA275657|EA275658|EA275659|EA275660|EA275661|EA275662|EA275663|EA275664,[M-H]-,CID35|HCD15|HCD30|HCD45|HCD60|HCD75|HCD90|HCD15|HCD30|HCD45|HCD60|HCD75|HCD90|CID35,82.0299:161.987:101.9656|161.9868:82.0298|161.9868:82.0299:77.9655|82.0299:161.9867:77.9654|82.0299:77.9655:161.9863|82.0299:77.9656|82.0299:77.9656|161.9868:82.0298|161.9868:82.0299:77.9653|82.0299:161.9866:77.9655|82.0299:77.9655:161.9866|82.0298:77.9655:70.0298|82.0298:77.9655|82.0299:161.9866:101.9655,161.98675;101.96555;82.0299;77.9655;70.0298,Eawag
stpQQR1000,"Ephedrine|(1R,2S)-2-(methylamino)-1-phenyl-1-propanol",c1([C@H]([C@@H](NC)C)O)ccccc1,165.1154,C10H15NO,"InChI=1S/C10H15NO/c1-8(11-2)10(12)9-6-4-3-5-7-9/h3-8,10-12H,1-2H3/t8-,10-/m0/s1",CAS_RN: 299-42-3,9294,KWGRBVOPPLSCSI-WPRPVWTQSA-N,8935,DTXSID0022985,Positive,EA275801|EA275802|EA275803|EA275804|EA275805|EA275806|EA275807|EA275808|EA275809|EA275810|EA275811|EA275812|EA275813|EA275814,[M+H]+,CID35|HCD15|HCD30|HCD45|HCD60|HCD75|HCD90|HCD15|HCD30|HCD45|HCD60|HCD75|HCD90|CID35,148.1122|166.1227:148.1121:117.0702|148.1122:166.1227:135.0805|148.1122:117.0699:166.1223|148.1121:117.0699:133.0886|148.1123:133.0888:117.07|133.0886:115.0543:117.0699|166.1227:148.1121:117.0698|148.1121:166.1227:135.0804|148.1121:117.0699:166.1228|148.1121:117.0699:133.0887|148.1122:133.0886:117.0699|133.0886:115.0542:117.0698|148.1121:117.0704:135.0805,148.1121;135.0805;133.0886;117.0699;115.05425,Eawag,NA,NA,NA,NA,NA,NA
stpQQR1001,"Cyanazine|2-[[4-chloranyl-6-(ethylamino)-1,3,5-triazin-2-yl]amino]-2-methyl-propanenitrile",CCNC1=NC(=NC(=N1)Cl)NC(C)(C)C#N,240.089,C9H13ClN6,"InChI=1S/C9H13ClN6/c1-4-12-7-13-6(10)14-8(15-7)16-9(2,3)5-11/h4H2,1-3H3,(H2,12,13,14,15,16)",CAS_RN: 21725-46-2,30773,MZZBPDKVEFVLFF-UHFFFAOYSA-N,28552,DTXSID1023990,Positive,EA275901|EA275902|EA275903|EA275904|EA275905|EA275906|EA275907|EA275908|EA275909|EA275910|EA275911|EA275912|EA275913|EA275914,[M+H]+,CID35|HCD15|HCD30|HCD45|HCD60|HCD75|HCD90|HCD15|HCD30|HCD45|HCD60|HCD75|HCD90|CID35,214.0857:205.1197:174.0541|241.0965:214.0851:71.0602|241.0967:214.0856:205.1197|214.0855:241.0966:174.054|214.0853:104.0011:132.0323|104.0011:68.0244:96.0557|104.001:68.0244:71.0604|241.0964:214.0854|241.0964:214.0855:205.1196|214.0855:241.0962:174.0541|214.0854:104.001:132.0323|104.001:68.0244:96.0556|104.001:68.0243:71.0604|214.0855:205.1197:174.0541,214.0855;205.1197;174.0541;132.0323;104.001;96.05565;71.0604;68.0244,Eawag,NA,NA,NA,NA,NA,NA
stpQQR1002,Dimethoate|2-(dimethoxyphosphinothioylthio)-N-methylacetamide,P(SCC(NC)=O)(OC)(OC)=S,228.9996,C5H12NO3PS2,"InChI=1S/C5H12NO3PS2/c1-6-5(7)4-12-10(11,8-2)9-3/h4H2,1-3H3,(H,6,7)",CAS_RN: 60-51-5,3082,MCWXGJITAZMZEV-UHFFFAOYSA-N,2973,DTXSID7020479,Positive,AU300901|AU300902|AU300903|AU300904|AU300905;SM837901;EA276101|EA276102|EA276103|EA276104|EA276105|EA276106|EA276107|EA276108|EA276109|EA276110|EA276111|EA276112|EA276113|EA276114;UF400301|UF400302|UF400303|UF400304,[M+H]+;[M+H]+;[M+H]+;[M+H]+,CID10|CID20|CID30|CID40|CID50;HCD35;CID35|HCD15|HCD30|HCD45|HCD60|HCD75|HCD90|HCD15|HCD30|HCD45|HCD60|HCD75|HCD90|CID35;HCD55|HCD80|CID35|CID55,198.9657:230.0081:170.9703|124.9823:170.9703:142.9929|124.9823:142.993:156.9542|124.9822:142.9927:156.9543|124.9823:142.9929:123.9979;142.9926:198.9647:170.9698;198.9648:170.9698:197.9811|198.9646:170.9697:230.0067|170.9697:198.9646:124.982|124.9821:142.9926:170.9698|124.982:142.9926:156.9541|124.982:142.9926:78.9944|124.982:142.9926:78.9943|198.9647:170.9698:230.0068|170.9698:198.9647:124.9821|124.9821:142.9926:170.9698|124.9821:142.9926:156.9541|124.982:142.9926:78.9943|124.982:142.9925:78.9943|198.9648:170.9698:197.9807;124.9819:142.9925:170.9697|124.9819:142.9925:78.9943|198.9646:170.9697:88.0214|198.9645:170.9697:88.0214,198.9647;197.9809;170.9698;156.95415;142.9926;124.98205;123.9979;88.0214;78.9943,Athens_Univ;CASMI_2016;Eawag;UFZ,NA,NA,NA,NA,NA,NA