NORMAN_ID,NAME,SMILES,NEUTRAL_EXACT_MASS,FORMULA,StdInChI,CAS_RN,PUBCHEM_CID,InChIKey,CHEMSPIDER_ID,DTXSID,Preferable Ionization,MB_Records Positive Ionization,Adduct Positive Ionization,Ionisation type and collision energy Positive Ionization,Fragments Positive Ionization,Simplified_fragments_Positive,Institute Positive Ionization,MB_Records Negative Ionization,Adduct Negative Ionization,Ionisation type and collision energy Negative Ionization,Fragments Negative Ionization,Simplified_fragments_Negative,Institute Negative Ionization
stpQQR232,"Desethylterbutylazine|Terbuthylazin-desethyl|2-N-tert-butyl-6-chloro-1,3,5-triazine-2,4-diamine",CC(C)(C)Nc1nc(N)nc(Cl)n1,201.07812,C7H12ClN5,"InChI=1S/C7H12ClN5/c1-7(2,3)13-6-11-4(8)10-5(9)12-6/h1-3H3,(H3,9,10,11,12,13)",CAS_RN: 30125-63-4,108201,LMKQNTMFZLAJDV-UHFFFAOYSA-N,97278,DTXSID80184211,Positive,SM840901;EA067101|EA067102|EA067103|EA067104|EA067105|EA067106|EA067107|EA067108|EA067109|EA067110|EA067111|EA067112|EA067113|EA067114;UF402601|UF402602|UF402603|UF402604,[M+H]+;[M+H]+;[M+H]+,HCD35;CID35|HCD15|HCD30|HCD45|HCD60|HCD75|HCD90|HCD15|HCD30|HCD45|HCD60|HCD75|HCD90|CID35;HCD55|HCD80|CID35|CID55,202.0853:132.0323:124.0869;146.0229:202.0859|202.0856:146.0231|202.0856:146.0229:79.0061|146.023:202.0848:79.0059|146.0229:104.001:79.0058|146.0229:104.0011:79.0059|146.023:104.0012:79.0059|202.0855:146.0229:68.0246|202.0856:146.023:79.0058|146.0229:202.0853:79.0058|146.0229:104.001:79.0058|146.023:104.0011:79.0059|146.023:104.0011:79.0059|146.023;202.0852:132.0322:124.0868|104.0009:96.0555:132.0322|202.0852:124.0868:132.0322|124.0868:132.0322:174.0539,174.0539;146.02295;132.0322;124.0868;104.0011;96.0555;79.0059;68.0246,CASMI_2016;Eawag;UFZ,NA,NA,NA,NA,NA,NA
stpQQR233,"Pirimiphos-methyl|4-dimethoxyphosphinothioyloxy-N,N-diethyl-6-methylpyrimidin-2-amine",CCN(CC)c1nc(C)cc(OP(=S)(OC)OC)n1,305.0963,C11H20N3O3PS,"InChI=1S/C11H20N3O3PS/c1-6-14(7-2)11-12-9(3)8-10(13-11)17-18(19,15-4)16-5/h8H,6-7H2,1-5H3",CAS_RN: 29232-93-7,34526,QHOQHJPRIBSPCY-UHFFFAOYSA-N,31773,DTXSID0024266,Positive,SM841002;UF402801|UF402802|UF402803|UF402804|UF402817|UF402818|UF402819,[M+H]+;[M+H]+,HCD35;HCD55|HCD80|CID35|CID55|HCD55|HCD80|CID35,306.1035:164.1182:108.0556;108.0555:164.1182:95.0603|108.0555:124.9819:95.0603|278.0721:164.1182:274.0773|278.0722:164.1182:274.0773|169.0794:153.1021:96.9507|100.0215:169.0794:96.9507|169.0793:153.1021:100.0213,278.07215;274.0773;169.0794;164.1182;153.1021;124.9819;108.0555;100.0214;96.9507;95.0603,CASMI_2016;UFZ,NA,NA,NA,NA,NA,NA
stpQQR234,"Desisopropylatrazine|6-chloro-2-N-ethyl-1,3,5-triazine-2,4-diamine",CCNc1nc(N)nc(Cl)n1,173.04682,C5H8ClN5,"InChI=1S/C5H8ClN5/c1-2-8-5-10-3(6)9-4(7)11-5/h2H2,1H3,(H3,7,8,9,10,11)",CAS_RN: 1007-28-9,13878,IVENSCMCQBJAKW-UHFFFAOYSA-N,13278,DTXSID0037495,Positive,AU372601|AU372602|AU372603|AU372604;SM841101;EA028701|EA028702|EA028703|EA028704|EA028705|EA028706|EA028707|EA028708|EA028709|EA028710|EA028711|EA028712|EA028713|EA028714;UF403001|UF403002|UF403003|UF403004,[M+H]+;[M+H]+;[M+H]+;[M+H]+,CID10|CID20|CID30|CID40;HCD35;CID35|HCD15|HCD30|HCD45|HCD60|HCD75|HCD90|HCD15|HCD30|HCD45|HCD60|HCD75|HCD90|CID35;HCD55|HCD80|CID35|CID55,174.0534:176.0503:175.0559|174.0534:132.0314:176.0499|132.0314:174.0532:146.0215|146.0211:132.0317:174.0532;174.0542:96.0556:132.0323;174.0542:146.0228:132.0323|174.054|174.0541:132.0323:79.0058|174.0541:132.0322:79.0057|174.0543:132.0323:104.001|104.001:68.0243:132.0322|68.0244:104.0011:79.0058|174.0541|174.0541:132.0323:79.0058|174.0541:132.0323:96.0556|174.0542:132.0323:104.001|104.001:68.0243:132.0323|104.001:68.0243:79.0058|174.0541:146.0228:132.0323;174.0541:132.0323:96.0556|104.0009:96.0555:132.0322|174.0539:146.0227:132.0322|146.0227:132.0322:79.0056,146.0227;132.0323;104.001;96.0556;79.0058;68.0243,Athens_Univ;CASMI_2016;Eawag;UFZ,NA,NA,NA,NA,NA,NA
stpQQR235,"Linuron|3-(3,4-dichlorophenyl)-1-methoxy-1-methylurea",CON(C)C(=O)Nc1ccc(Cl)c(Cl)c1,248.01193,C9H10Cl2N2O2,"InChI=1S/C9H10Cl2N2O2/c1-13(15-2)9(14)12-6-3-4-7(10)8(11)5-6/h3-5H,1-2H3,(H,12,14)",CAS_RN: 330-55-2,9502,XKJMBINCVNINCA-UHFFFAOYSA-N,9130,DTXSID2024163,Positive,SM841202;EA016001|EA016002|EA016003|EA016004|EA016005|EA016006|EA016007|EA016008|EA016009|EA016010|EA016011|EA016012|EA016013|EA016014;UF403101|UF403102|UF403103|UF403104,[M+H]+;[M+H]+;[M+H]+,HCD35;CID35|HCD15|HCD30|HCD45|HCD60|HCD75|HCD90|HCD15|HCD30|HCD45|HCD60|HCD75|HCD90|CID35;HCD55|HCD80|CID35|CID55,159.9716:182.0241:249.0193;182.0243:159.9716:187.9664|249.0193:182.0243:159.9715|159.9715:182.0241:249.0189|159.9716:182.0242:160.9793|159.9716:160.9793:182.0241|132.9606:159.9716:160.9794|132.9606:160.9793:125.0026|249.0193:182.0241:159.9715|159.9716:182.0242:249.0191|159.9716:182.0242:160.9793|159.9715:160.9793:182.0241|132.9606:159.9714:160.9793|132.9606:160.9793:125.0026|182.0241:159.9715:187.9663;159.9715:182.0242:160.9794|132.9606:160.9794:125.0027|182.0241:159.9715:187.9664|182.024:159.9715:187.9665,187.9664;182.0241;160.9793;159.9715;132.9606;125.0026,CASMI_2016;Eawag;UFZ,NA,NA,NA,NA,NA,NA
stpQQR236,"Terbuthylazine|2-N-tert-butyl-6-chloro-4-N-ethyl-1,3,5-triazine-2,4-diamine",CCNc1nc(Cl)nc(NC(C)(C)C)n1,229.10942,C9H16ClN5,"InChI=1S/C9H16ClN5/c1-5-11-7-12-6(10)13-8(14-7)15-9(2,3)4/h5H2,1-4H3,(H2,11,12,13,14,15)",CAS_RN: 5915-41-3,22206,FZXISNSWEXTPMF-UHFFFAOYSA-N,20848,DTXSID4027608,Positive,AU367601|AU367602|AU367603|AU367604;SM841303;EA028401|EA028402|EA028403|EA028404|EA028405|EA028406|EA028407|EA028408|EA028409|EA028410|EA028411|EA028412|EA028413|EA028414;UF403201|UF403202|UF403203|UF403204,[M+H]+;[M+H]+;[M+H]+;[M+H]+,CID10|CID20|CID30|CID40;HCD35;CID35|HCD15|HCD30|HCD45|HCD60|HCD75|HCD90|HCD15|HCD30|HCD45|HCD60|HCD75|HCD90|CID35;HCD55|HCD80|CID35|CID55,230.1162:232.1135:174.0531|174.0531:176.0499:230.1162|174.0531:176.0499:132.0315|174.0531:132.0315:146.0219;174.0541:230.1167:96.0556;174.0543|230.1169|230.1167:174.0543:79.006|174.0544:230.1171:146.023|174.0542:132.0324:146.0228|174.0541:104.0011:68.0243|68.0244:104.0011:79.0058|230.1168:174.0542|230.1168:174.0543:132.0319|174.0542:230.1167:146.0229|174.0543:132.0324:146.0229|174.0542:104.0011:68.0244|104.001:68.0243:79.0058|174.0543;174.054:132.0323:146.0227|104.0009:174.0539:96.0555|174.0539:230.1166|174.0539,176.0499;174.05415;146.02285;132.0321;104.0011;96.05555;79.0058;68.02435,Athens_Univ;CASMI_2016;Eawag;UFZ,NA,NA,NA,NA,NA,NA
stpQQR237,"Atrazine|6-chloro-4-N-ethyl-2-N-propan-2-yl-1,3,5-triazine-2,4-diamine",CCNc1nc(Cl)nc(NC(C)C)n1,215.09377,C8H14ClN5,"InChI=1S/C8H14ClN5/c1-4-10-7-12-6(9)13-8(14-7)11-5(2)3/h5H,4H2,1-3H3,(H2,10,11,12,13,14)",CAS_RN: 1912-24-9,2256,MXWJVTOOROXGIU-UHFFFAOYSA-N,2169,DTXSID9020112,Positive,AU310901|AU310902|AU310903|AU310904|AU310905;SM841401;EA028801|EA028802|EA028803|EA028804|EA028805|EA028806|EA028807|EA028808|EA028809|EA028810|EA028811|EA028812|EA028813|EA028814;UF403301|UF403302|UF403303|UF403304;UA002901|UA002903,[M+H]+;[M+H]+;[M+H]+;[M+H]+;[M+H]+,CID10|CID20|CID30|CID40|CID50;HCD35;CID35|HCD15|HCD30|HCD45|HCD60|HCD75|HCD90|HCD15|HCD30|HCD45|HCD60|HCD75|HCD90|CID35;HCD55|HCD80|CID35|CID55;CID35|CID35,216.1006:218.0976:217.1033|174.0531:216.1005:176.0501|174.0531:132.0316:176.0501|146.022:132.0319:174.0532|146.0217:132.0319:138.076;216.1011:174.0541:96.0556;174.0543:138.1026:96.0556|216.1012|216.1012:174.0546:96.0556|174.0544:216.1014:104.001|174.0541:104.0011:132.0325|104.0011:174.0537:68.0244|104.001:68.0243:79.0058|216.1012|216.1012:174.0541:96.0554|174.0544:216.1012:104.0011|174.0542:104.001:132.0323|174.0542:104.0011:68.0243|104.0011:68.0243:79.0058|174.0542:138.1026:96.0556;174.054:216.1009:104.0009|104.0009:174.054:96.0555|174.0539:216.1009:138.1026|174.054:138.1026:96.0556;174.0541:216.101:96.0556|174.0539:216.1006:138.1023,176.0501;174.0541;146.02185;138.1026;138.076;132.0319;104.00105;96.0556;79.0058;68.0243,Athens_Univ;CASMI_2016;Eawag;UFZ;UFZ_Additional_Specs,NA,NA,NA,NA,NA,NA
stpQQR238,"Propiconazole|1-[[2-(2,4-dichlorophenyl)-4-propyl-1,3-dioxolan-2-yl]methyl]-1,2,4-triazole",CCCC1COC(Cn2cncn2)(O1)c1ccc(Cl)cc1Cl,341.06978,C15H17Cl2N3O2,"InChI=1S/C15H17Cl2N3O2/c1-2-3-12-7-21-15(22-12,8-20-10-18-9-19-20)13-5-4-11(16)6-14(13)17/h4-6,9-10,12H,2-3,7-8H2,1H3",CAS_RN: 60207-90-1,43234,STJLVHWMYQXCPB-UHFFFAOYSA-N,39402,DTXSID8024280,Positive,SM841502;EA021201|EA021202|EA021203|EA021204|EA021205|EA021206|EA021207|EA021208|EA021209|EA021210|EA021211|EA021212|EA021213|EA021214;ET240001|ET240002|ET240003|ET240004;UF403501|UF403502|UF403503|UF403504,[M+H]+;[M+H]+;[M+H]+;[M+H]+,HCD35;CID35|HCD15|HCD30|HCD45|HCD60|HCD75|HCD90|HCD15|HCD30|HCD45|HCD60|HCD75|HCD90|CID35;HCD30|HCD40|HCD50|HCD70;HCD55|HCD80|CID35|CID55,342.0772:158.9763:69.0699;158.9763:204.9817:273.044|342.0771:70.0399|342.077:158.9763:69.0699|158.9763:69.0699:186.9712|158.9764:69.0699:172.9556|158.9764:172.9558:69.0699|158.9764:172.9564:122.9996|342.0769:69.0697:273.0447|342.0766:158.9762:69.0699|158.9763:69.0699:186.9711|158.9763:69.0699:172.9555|158.9763:172.9555:69.0699|158.9763:172.9555:122.9996|158.9763:204.9818:273.0442;158.9762:69.0699:342.0768|158.9763:69.0699:186.9711|158.9761:69.0698:172.9553|158.9762:172.9554:69.0699;158.9761:172.9555:186.9712|158.9761:172.9554:70.0398|158.9762:204.9817:273.0442|158.9762:204.9818:273.0444,273.0442;204.98175;186.97115;172.9555;158.9763;122.9996;70.03985;69.0699,CASMI_2016;Eawag;Eawag_Additional_Specs;UFZ,NA,NA,NA,NA,NA,NA
stpQQR239,"Metazachlor|2-chloro-N-(2,6-dimethylphenyl)-N-(pyrazol-1-ylmethyl)acetamide",Cc1cccc(C)c1N(Cn1cccn1)C(=O)CCl,277.09819,C14H16ClN3O,"InChI=1S/C14H16ClN3O/c1-11-5-3-6-12(2)14(11)18(13(19)9-15)10-17-8-4-7-16-17/h3-8H,9-10H2,1-2H3",CAS_RN: 67129-08-2,49384,STEPQTYSZVCJPV-UHFFFAOYSA-N,44885,DTXSID4058156,Positive,AU353901|AU353902|AU353903|AU353904|AU353905;SM841601;EA026901|EA026902|EA026903|EA026904|EA026905|EA026906|EA026907|EA026908|EA026909|EA026910|EA026911|EA026912|EA026913|EA026914;UF403601|UF403602|UF403603|UF403604;UA003101,[M+H]+;[M+H]+;[M+H]+;[M+H]+;[M+H]+,CID10|CID20|CID30|CID40|CID50;HCD35;CID35|HCD15|HCD30|HCD45|HCD60|HCD75|HCD90|HCD15|HCD30|HCD45|HCD60|HCD75|HCD90|CID35;HCD55|HCD80|CID35|CID55;CID35,210.0676:212.0644:278.105|134.0956:210.0676:135.0989|134.0957:135.0991:210.0676|134.0959:135.0994:132.0801|134.0958:135.0992:132.0802;134.0964:210.068:278.1055;210.0686:134.0966:76.9785|210.0683:134.0966:278.1055|134.0965:210.0681|134.0966:210.068:76.979|134.0966:105.07:76.979|134.0966:105.07:76.979|134.0966:105.07:79.0543|210.0682:134.0966:278.1054|134.0965:210.0681|134.0966:210.0681:76.9788|134.0966:105.07:76.9789|134.0965:105.0699:76.9789|134.0965:105.0699:79.0543|210.0681:134.0964;134.0963:76.9788|134.0964:76.9789|210.068:134.0964|210.068:134.0964;210.0681:134.0965,212.0644;210.0681;135.09915;134.0965;132.08015;105.07;79.0543;76.9789,Athens_Univ;CASMI_2016;Eawag;UFZ;UFZ_Additional_Specs,NA,NA,NA,NA,NA,NA
stpQQR240,"Pirimicarb|[2-(dimethylamino)-5,6-dimethylpyrimidin-4-yl] N,N-dimethylcarbamate",CN(C)C(=O)Oc1nc(nc(C)c1C)N(C)C,238.14298,C11H18N4O2,InChI=1S/C11H18N4O2/c1-7-8(2)12-10(14(3)4)13-9(7)17-11(16)15(5)6/h1-6H3,CAS_RN: 23103-98-2,31645,YFGYUFNIOHWBOB-UHFFFAOYSA-N,29348,DTXSID1032569,Positive,SM841701;EA271101|EA271102|EA271103|EA271104|EA271105|EA271106|EA271107|EA271108|EA271109|EA271110|EA271111|EA271112|EA271113|EA271114;UF403901|UF403902|UF403903|UF403904,[M+H]+;[M+H]+;[M+H]+,HCD35;CID35|HCD15|HCD30|HCD45|HCD60|HCD75|HCD90|HCD15|HCD30|HCD45|HCD60|HCD75|HCD90|CID35;HCD55|HCD80|CID35|CID55,72.0445:239.1503:182.1289;182.129:195.1606:72.0444|239.1505:182.129:72.0441|239.1499:182.1288:72.0444|72.0445:182.1289:239.1511|72.0444:182.1287:85.076|72.0445:85.076:109.076|72.0445:109.0761:85.076|239.1504:182.1288:72.0442|239.1505:182.1289:72.0445|72.0445:182.1289:239.1494|72.0444:182.1289:85.076|72.0445:85.0761:182.129|72.0444:109.0761:85.0761|182.1289:195.1605:72.0444;72.0442:182.1286:85.0759|72.0442:109.0758:85.0759|182.1287:195.1603:239.1502|182.1287:195.1603:72.0443,195.1604;182.1289;109.07605;85.076;72.0444,CASMI_2016;Eawag;UFZ,NA,NA,NA,NA,NA,NA
stpQQR241,Metolachlor|2-chloro-N-(2-ethyl-6-methylphenyl)-N-(1-methoxypropan-2-yl)acetamide,CCc1cccc(C)c1N(C(C)COC)C(=O)CCl,283.13391,C15H22ClNO2,"InChI=1S/C15H22ClNO2/c1-5-13-8-6-7-11(2)15(13)17(14(18)9-16)12(3)10-19-4/h6-8,12H,5,9-10H2,1-4H3",CAS_RN: 63150-68-5,4169,WVQBLGZPHOPPFO-UHFFFAOYSA-N,4025,DTXSID4022448,Positive,AU355601|AU355602|AU355603|AU355604|AU355605;SM841801;EA026801|EA026802|EA026803|EA026804|EA026805|EA026806|EA026807|EA026808|EA026809|EA026810|EA026811|EA026812|EA026813|EA026814;UF404001|UF404002|UF404003|UF404004,[M+H]+;[M+H]+;[M+H]+;[M+H]+,CID10|CID20|CID30|CID40|CID50;HCD35;CID35|HCD15|HCD30|HCD45|HCD60|HCD75|HCD90|HCD15|HCD30|HCD45|HCD60|HCD75|HCD90|CID35;HCD55|HCD80|CID35|CID55,284.1415:252.1151:254.1122|252.1151:254.1122:253.1181|176.1428:252.1148:254.112|176.1426:134.0954:133.0875|134.0953:146.0953:176.1424;252.115:176.1434:284.1413;252.1154:212.0846|284.1415:252.1152:176.1434|252.115:284.1405:176.1433|252.115:176.1435:212.0838|176.1436:252.1149:134.0965|176.1434:134.0964:133.0886|134.0965:133.0887:91.0543|284.1412:252.115|252.1151:284.1413:176.1435|252.115:176.1434:212.0837|176.1434:252.1148:134.0964|176.1434:134.0964:133.0886|134.0964:91.0542:133.0886|252.115;176.1433:252.1149:134.0964|134.0964:176.1433:133.0886|252.1148:212.0837|252.1148,254.1122;253.1181;252.115;212.08375;176.1434;146.0953;134.0964;133.0886;91.05425,Athens_Univ;CASMI_2016;Eawag;UFZ,NA,NA,NA,NA,NA,NA
stpQQR242,"Simazine|6-chloro-2-N,4-N-diethyl-1,3,5-triazine-2,4-diamine",CCNc1nc(Cl)nc(NCC)n1,201.07812,C7H12ClN5,"InChI=1S/C7H12ClN5/c1-3-9-6-11-5(8)12-7(13-6)10-4-2/h3-4H2,1-2H3,(H2,9,10,11,12,13)",CAS_RN: 122-34-9,5216,ODCWYMIRDDJXKW-UHFFFAOYSA-N,5027,DTXSID4021268,Positive,AU314101|AU314102|AU314103;SM841901;EA026201|EA026202|EA026203|EA026204|EA026205|EA026206|EA026207|EA026208|EA026209|EA026210|EA026211|EA026212|EA026213|EA026214;UF404101|UF404102|UF404103|UF404104,[M+H]+;[M+H]+;[M+H]+;[M+H]+,CID10|CID20|CID30;HCD35;CID35|HCD15|HCD30|HCD45|HCD60|HCD75|HCD90|HCD15|HCD30|HCD45|HCD60|HCD75|HCD90|CID35;HCD55|HCD80|CID35|CID55,202.0848:204.082:203.0866|202.0848:132.0315:124.0859|132.0312:124.0865:202.0838;146.0228:202.0854:79.0058;124.087:202.0856:132.0325|202.0855:124.0874|202.0857:124.087:132.0324|202.0856:132.0324:124.087|132.0324:202.0853:124.087|104.001:68.0243:132.0324|68.0243:104.001:96.0556|202.0855:71.0602|202.0854:124.0869:132.0323|202.0854:132.0323:124.087|202.0855:132.0324:124.087|104.0011:68.0243:96.0557|104.001:68.0243:96.0556|202.0854:124.087:132.0323;202.0852:132.0322:124.0868|104.0009:96.0555:132.0322|202.0852:124.0868:132.0322|124.0868:132.0322:174.0539,174.0539;146.0228;132.0323;124.087;104.001;96.0556;79.0058;71.0602;68.0243,Athens_Univ;CASMI_2016;Eawag;UFZ,NA,NA,NA,NA,NA,NA
stpQQR243,Mecoprop|2-(4-chloro-2-methylphenoxy)propanoic acid,CC(Oc1ccc(Cl)cc1C)C(O)=O,214.03967,C10H11ClO3,"InChI=1S/C10H11ClO3/c1-6-5-8(11)3-4-9(6)14-7(2)10(12)13/h3-5,7H,1-2H3,(H,12,13)",CAS_RN: 93-65-2,7153,WNTGYJSOUMFZEP-UHFFFAOYSA-N,6886,DTXSID9024194,Negative,NA,NA,NA,NA,NA,NA,SM842051;EA030851|EA030852|EA030853|EA030854|EA030855|EA030856|EA030857|EA030858|EA030859|EA030860|EA030861|EA030862|EA030863|EA030864,[M-H]-;[M-H]-,HCD35;CID35|HCD15|HCD30|HCD45|HCD60|HCD75|HCD90|HCD15|HCD30|HCD45|HCD60|HCD75|HCD90|CID35,141.0112:213.0324:169.0425;141.0115:71.0139:169.0429|141.0113:213.0325:71.0138|141.0114:213.0319:71.0138|141.0113:71.0137|141.0114:71.0139|141.0111:121.0293:105.0347|141.0111:121.0297:105.0346|141.0113:213.0324:71.0138|141.0113:71.0138:213.0325|141.0112:71.0137|141.0112:71.0136:121.0293|141.0113:121.0293:105.0345|141.0111:121.0298:105.0344|141.0114:71.0138:169.0423,213.0324;169.0425;141.0113;121.0293;105.03455;71.0138,CASMI_2016;Eawag
stpQQR244,MCPA|2-(4-chloro-2-methylphenoxy)acetic acid,Cc1cc(Cl)ccc1OCC(O)=O,200.02402,C9H9ClO3,"InChI=1S/C9H9ClO3/c1-6-4-7(10)2-3-8(6)13-5-9(11)12/h2-4H,5H2,1H3,(H,11,12)",CAS_RN: 94-74-6,7204,WHKUVVPPKQRRBV-UHFFFAOYSA-N,6935,DTXSID4024195,Negative,NA,NA,NA,NA,NA,NA,SM842156;EA026151|EA026152|EA026153|EA026154|EA026155|EA026156|EA026157|EA026158|EA026159|EA026160|EA026161|EA026162|EA026163|EA026164;ML000251,[M-H]-;[M-H]-;[M-H]-,HCD35;CID35|HCD15|HCD30|HCD45|HCD60|HCD75|HCD90|HCD15|HCD30|HCD45|HCD60|HCD75|HCD90|CID35;HCD50,141.0112:199.0168:155.027;141.0114:155.0272:199.0165|199.0168:141.0113:155.0271|141.0114:199.0169:155.0269|141.0113|141.0114:121.0298|141.0113:121.0291:105.0346|141.0113:121.0294:105.0344|199.0168:141.0113:155.0268|141.0114:199.0167:155.0269|141.0113:155.0274|141.0113:121.0297|141.0113:121.0291:105.0344|141.0112|141.0114:155.0272:199.0166;199.0165:170.9853:169.9777,199.01675;170.9853;169.9777;155.02705;141.0113;121.0294;105.0344,CASMI_2016;Eawag;MetaboLights
stpQQR245,"Chlorothalonil-4-hydroxy|4-Hydroxychlorothalonil|2,4,5-trichloro-6-hydroxybenzene-1,3-dicarbonitrile",Oc1c(Cl)c(Cl)c(C#N)c(Cl)c1C#N,245.91545,C8HCl3N2O,InChI=1S/C8HCl3N2O/c9-5-3(1-12)6(10)7(11)8(14)4(5)2-13/h14H,CAS_RN: 28343-61-5,34217,MDQKYGOECVSPIW-UHFFFAOYSA-N,31530,DTXSID90182586,Negative,NA,NA,NA,NA,NA,NA,SM842251,[M-H]-,HCD35,244.9081:174.9704:209.9394,244.9081;209.9394;174.9704,CASMI_2016
stpQQR246,"Tebuconazole|1-(4-chlorophenyl)-4,4-dimethyl-3-(1,2,4-triazol-1-ylmethyl)pentan-3-ol",CC(C)(C)C(O)(CCc1ccc(Cl)cc1)Cn1cncn1,307.14514,C16H22ClN3O,"InChI=1S/C16H22ClN3O/c1-15(2,3)16(21,10-20-12-18-11-19-20)9-8-13-4-6-14(17)7-5-13/h4-7,11-12,21H,8-10H2,1-3H3",CAS_RN: 84808-29-7,86102,PXMNMQRDXWABCY-UHFFFAOYSA-N,77680,DTXSID9032113,Positive,SM842302;EA032701|EA032702|EA032703|EA032704|EA032705|EA032706|EA032707|EA032708|EA032709|EA032710|EA032711|EA032712|EA032713|EA032714;ET250001;UF404301|UF404302|UF404303|UF404304,[M+H]+;[M+H]+;[M+H]+;[M+H]+,HCD35;CID35|HCD15|HCD30|HCD45|HCD60|HCD75|HCD90|HCD15|HCD30|HCD45|HCD60|HCD75|HCD90|CID35;HCD35;HCD55|HCD80|CID35|CID55,70.04:308.1523:125.0152;290.1418:151.0309:165.046|308.1526|308.1523:70.04:125.0153|70.04:125.0153:308.1528|70.04:125.0153:151.0311|70.04:125.0152:151.0309|70.04:125.0152:116.062|308.1525:70.0398:125.0147|308.1526:70.04:125.0151|70.04:125.0153:151.031|70.04:125.0153:151.0309|70.04:125.0153:116.0621|70.04:125.0153:116.0621|290.1414:151.0309:165.0464;70.04:308.1524:125.0153;70.0398:125.0151:151.0308|70.0398:125.0151:116.0619|151.0308:290.1416:165.0465|151.0307:290.1417:165.0465,290.14165;165.04645;151.0309;125.0153;116.06205;70.04,CASMI_2016;Eawag;Eawag_Additional_Specs;UFZ,NA,NA,NA,NA,NA,NA
stpQQR247,"Thiacloprid|[3-[(6-chloropyridin-3-yl)methyl]-1,3-thiazolidin-2-ylidene]cyanamide",Clc1ccc(CN2CCSC2=NC#N)cn1,252.02364,C10H9ClN4S,"InChI=1S/C10H9ClN4S/c11-9-2-1-8(5-13-9)6-15-3-4-16-10(15)14-7-12/h1-2,5H,3-4,6H2",CAS_RN: 111988-49-9,115224,HOKKPVIRMVDYPB-UHFFFAOYSA-N,21865404,NA,Positive,AU302401|AU302402|AU302403|AU302404|AU302405;SM842402;EA295401|EA295402|EA295403|EA295404|EA295405|EA295406|EA295407|EA295408|EA295409|EA295410|EA295411|EA295412|EA295413|EA295414,[M+H]+;[M+H]+;[M+H]+,CID10|CID20|CID30|CID40|CID50;HCD35;CID35|HCD15|HCD30|HCD45|HCD60|HCD75|HCD90|HCD15|HCD30|HCD45|HCD60|HCD75|HCD90|CID35,253.0309:255.0278:254.0333|126.0099:253.0309:128.0068|126.0099:128.0068:127.0133|126.009:128.0068:127.0133|126.0099:128.0068:127.0133;126.0105:253.0309:186.0139;126.0105:186.0139:226.0201|253.0308:126.01:186.0135|253.031:126.0105:186.0139|126.0105:253.0307:186.0137|126.0105:90.0338:144.021|126.0105:90.0338:98.9996|126.0105:90.0338:98.9996|253.0308:126.0102:186.0139|253.0309:126.0105:186.0139|126.0105:253.0308:186.0137|126.0106:90.0339:144.0211|126.0105:90.0338:98.9996|126.0105:98.9996:90.0339|126.0106:186.0139:226.0201,226.0201;186.0139;144.02105;128.0068;127.0133;126.0105;98.9996;90.0338,Athens_Univ;CASMI_2016;Eawag,NA,NA,NA,NA,NA,NA