NORMAN_ID,NAME,SMILES,NEUTRAL_EXACT_MASS,FORMULA,StdInChI,CAS_RN,PUBCHEM_CID,InChIKey,CHEMSPIDER_ID,DTXSID,Preferable Ionization,MB_Records Positive Ionization,Adduct Positive Ionization,Ionisation type and collision energy Positive Ionization,Fragments Positive Ionization,Simplified_fragments_Positive,Institute Positive Ionization,MB_Records Negative Ionization,Adduct Negative Ionization,Ionisation type and collision energy Negative Ionization,Fragments Negative Ionization,Simplified_fragments_Negative,Institute Negative Ionization
stpQQR171,"4-Methylumbelliferyl glucuronide|(2S,3R,4S,5R,6S)-3,4,5-trihydroxy-6-(4-methyl-2-oxochromen-7-yl)oxyoxane-2-carboxylic acid",CC1=CC(=O)OC2=CC(O[C@@H]3O[C@@H]([C@H](O)[C@H](O)[C@H]3O)C(O)=O)=CC=C12,352.07943,C16H16O9,"InChI=1S/C16H16O9/c1-6-4-10(17)24-9-5-7(2-3-8(6)9)23-16-13(20)11(18)12(19)14(25-16)15(21)22/h2-5,11-14,16,18-20H,1H3,(H,21,22)/t11-,12+,13+,14-,16+/m0/s1",CAS_RN: NA,2733792,ARQXEQLMMNGFDU-SQCNAZHOSA-N,2015562,NA,Negative,NA,NA,NA,NA,NA,NA,SM832751,[M-H]-,HCD35,175.0401:175.0249:351.0721,351.0721;175.0401;175.0249,CASMI_2016
stpQQR172,Azathioprine|6-(3-methyl-5-nitroimidazol-4-yl)sulfanyl-7H-purine,CN1C=NC(=C1SC1=C2NC=NC2=NC=N1)[N+]([O-])=O,277.03819,C9H7N7O2S,"InChI=1S/C9H7N7O2S/c1-15-4-14-7(16(17)18)9(15)19-8-5-6(11-2-10-5)12-3-13-8/h2-4H,1H3,(H,10,11,12,13)",CAS_RN: 446-86-6,2265,LMEKQMALGUDUQG-UHFFFAOYSA-N,2178,DTXSID4020119,Negative,NA,NA,NA,NA,NA,NA,SM832851,[M-H]-,HCD35,276.0309:158.003:134.0232,276.0309;158.003;134.0232,CASMI_2016
stpQQR173,1-Naphthol-5-sulfonic acid|5-hydroxynaphthalene-1-sulfonic acid,OC1=CC=CC2=C(C=CC=C12)S(O)(=O)=O,224.01433,C10H8O4S,"InChI=1S/C10H8O4S/c11-9-5-1-4-8-7(9)3-2-6-10(8)15(12,13)14/h1-6,11H,(H,12,13,14)",CAS_RN: 117-59-9,67025,YLKCHWCYYNKADS-UHFFFAOYSA-N,60378,DTXSID0059459,Negative,NA,NA,NA,NA,NA,NA,SM833051,[M-H]-,HCD35,223.007:159.0451:143.0502,223.007;159.0451;143.0502,CASMI_2016
stpQQR174,"2,2`,4,4`-Tetrahydroxybenzophenone|bis(2,4-dihydroxyphenyl)methanone",OC1=CC(O)=C(C=C1)C(=O)C1=C(O)C=C(O)C=C1,246.05282,C13H10O5,"InChI=1S/C13H10O5/c14-7-1-3-9(11(16)5-7)13(18)10-4-2-8(15)6-12(10)17/h1-6,14-17H",CAS_RN: 131-55-5,8571,WXNRYSGJLQFHBR-UHFFFAOYSA-N,8253,DTXSID5041306,Positive/Negative,TUE00121|TUE00122|TUE00123,[M+H]+,NA10.0V|NA20.0V|NA40.0V,137.0233:104.9922:247.0605|137.0233:124.0867:104.992|81.0336:137.0233:53.0386,137.0233;124.0867;104.9921;81.0336;53.0386,Env_Anal_Chem_U_Tuebingen,SM833151;TUE00125|TUE00126|TUE00127,[M-H]-;[M-H]-,HCD35;NA10.0V|NA20.0V|NA40.0V,135.0086:245.0455:153.0193;135.0088:245.0456:109.0295|109.0295:135.0087:91.0188|109.0295:91.0188:65.0395,245.04555;153.0193;135.0087;109.0295;91.0188;65.0395,CASMI_2016;Env_Anal_Chem_U_Tuebingen
stpQQR175,"2,4-Dihydroxybenzophenone|(2,4-dihydroxyphenyl)-phenylmethanone",OC1=CC(O)=C(C=C1)C(=O)C1=CC=CC=C1,214.06299,C13H10O3,"InChI=1S/C13H10O3/c14-10-6-7-11(12(15)8-10)13(16)9-4-2-1-3-5-9/h1-8,14-15H",CAS_RN: 131-56-6,8572,ZXDDPOHVAMWLBH-UHFFFAOYSA-N,8254,DTXSID8022406,Positive/Negative,SM833201;TUE00111|TUE00112|TUE00113,[M+H]+;[M+H]+,HCD35;NA10.0V|NA20.0V|NA40.0V,137.0234:215.0705:105.0336;215.0706:137.0233:105.0335|137.0233:105.0335:77.0383|81.0336:77.0385:137.0232,137.0233;105.0335;81.0336;77.0384,CASMI_2016;Env_Anal_Chem_U_Tuebingen,SM833251;TUE00115|TUE00116|TUE00117,[M-H]-;[M-H]-,HCD35;NA10.0V|NA20.0V|NA40.0V,213.0556:135.0086:169.0659;213.0558:135.0086:169.0657|135.0088:91.019:213.0558|91.019:41.0026:65.0032,213.0558;169.0658;135.0086;91.019;65.0032;41.0026,CASMI_2016;Env_Anal_Chem_U_Tuebingen
stpQQR176,"Omeprazole|6-methoxy-2-[(4-methoxy-3,5-dimethylpyridin-2-yl)methylsulfinyl]-1H-benzimidazole",COC1=CC=C2N=C(NC2=C1)S(=O)CC1=NC=C(C)C(OC)=C1C,345.11471,C17H19N3O3S,"InChI=1S/C17H19N3O3S/c1-10-8-18-15(11(2)16(10)23-4)9-24(21)17-19-13-6-5-12(22-3)7-14(13)20-17/h5-8H,9H2,1-4H3,(H,19,20)",CAS_RN: 73590-58-6,4594,SUBDBMMJDZJVOS-UHFFFAOYSA-N,4433,DTXSID6021080,Positive/Negative,AU111301|AU111302|AU111303|AU111304|AU111305;SM833401,[M+H]+;[M+H]+,CID10|CID20|CID30|CID40|CID50;HCD35,198.058:346.1221:168.1017|198.052:151.094:168.0963|136.0751:151.0986:198.058|136.0752:180.0472:151.0986|136.075:150.0908:180.0473;198.0586:136.0758:151.0994,198.058;180.04725;168.099;151.0986;150.0908;136.07515,Athens_Univ;CASMI_2016,SM833453,[M-H]-,HCD35,194.0155:178.992:147.02,194.0155;178.992;147.02,CASMI_2016
stpQQR177,Nonivamide|N-[(4-hydroxy-3-methoxyphenyl)methyl]nonanamide,CCCCCCCCC(=O)NCC1=CC=C(O)C(OC)=C1,293.19909,C17H27NO3,"InChI=1S/C17H27NO3/c1-3-4-5-6-7-8-9-17(20)18-13-14-10-11-15(19)16(12-14)21-2/h10-12,19H,3-9,13H2,1-2H3,(H,18,20)",CAS_RN: 630-63-7,2998,RGOVYLWUIBMPGK-UHFFFAOYSA-N,2891,DTXSID1034769,Positive,SM833501,[M+H]+,HCD35,137.0597:122.0363:141.1274,141.1274;137.0597;122.0363,CASMI_2016,NA,NA,NA,NA,NA,NA
stpQQR178,"Pantoprazole|6-(difluoromethoxy)-2-[(3,4-dimethoxypyridin-2-yl)methylsulfinyl]-1H-benzimidazole",COC1=CC=NC(CS(=O)C2=NC3=CC=C(OC(F)F)C=C3N2)=C1OC,383.07513,C16H15F2N3O4S,"InChI=1S/C16H15F2N3O4S/c1-23-13-5-6-19-12(14(13)24-2)8-26(22)16-20-10-4-3-9(25-15(17)18)7-11(10)21-16/h3-7,15H,8H2,1-2H3,(H,20,21)",CAS_RN: 102625-70-7,4679,IQPSEEYGBUAQFF-UHFFFAOYSA-N,4517,DTXSID4023416,Positive/Negative,SM833601;EA064401|EA064402|EA064403|EA064404|EA064405|EA064406|EA064407|EA064408|EA064409|EA064410|EA064411|EA064412|EA064413|EA064414,[M+H]+;[M+H]+,HCD35;CID35|HCD15|HCD30|HCD45|HCD60|HCD75|HCD90|HCD15|HCD30|HCD45|HCD60|HCD75|HCD90|CID35,138.055:200.0378:153.0785;200.0378:138.0551:168.0654|200.0376:138.055:384.082|138.055:200.0376:153.0784|138.055:200.0375:107.0729|138.055:200.0377:152.0706|138.0549:136.0392:152.0704|138.0549:136.0392:110.0601|200.0376:138.0548:384.0821|138.0549:200.0375:153.0784|138.0549:200.0375:122.06|138.0549:200.0374:152.0705|138.0549:136.0392:152.0705|138.0549:136.0392:110.06|200.0376:138.0548:168.0653,200.0376;168.06535;153.0784;152.0705;138.0549;136.0392;122.06;110.06005;107.0729,CASMI_2016;Eawag,SM833651;EA064451|EA064452|EA064453|EA064454|EA064455|EA064456|EA064457|EA064458|EA064459|EA064460|EA064461|EA064462|EA064463|EA064464,[M-H]-;[M-H]-,HCD35;CID35|HCD15|HCD30|HCD45|HCD60|HCD75|HCD90|HCD15|HCD30|HCD45|HCD60|HCD75|HCD90|CID35,229.9966:161.0156:209.9904;229.9965|229.9966:382.0683|229.9966|229.9966:161.0157:209.9908|161.0158:229.9967:161.9898|161.0157:161.9895:147.0199|161.0157:141.0095:147.0202|229.9965:382.0668|229.9966|229.9965:161.0156:209.9907|161.0156:229.9965:209.9896|161.0157:147.0203:161.9892|161.0157:141.0093:161.9893|229.9963,382.06755;229.9966;209.99055;161.9894;161.0157;147.0202;141.0094,CASMI_2016;Eawag
stpQQR179,"Abietic acid|(1R,4aR,4bR,10aR)-1,4a-dimethyl-7-propan-2-yl-2,3,4,4b,5,6,10,10a-octahydrophenanthrene-1-carboxylic acid",CC(C)C1=CC2=CC[C@@H]3[C@](C)(CCC[C@@]3(C)C(O)=O)[C@H]2CC1,302.22458,C20H30O2,"InChI=1S/C20H30O2/c1-13(2)14-6-8-16-15(12-14)7-9-17-19(16,3)10-5-11-20(17,4)18(21)22/h7,12-13,16-17H,5-6,8-11H2,1-4H3,(H,21,22)/t16-,17+,19+,20+/m0/s1",CAS_RN: 514-10-3,10569,RSWGJHLUYNHPMX-ONCXSQPRSA-N,10127,DTXSID7022047,Positive,SM833703,[M+H]+,HCD35,123.1169:303.2321:121.1012,123.1169;121.1012,CASMI_2016,NA,NA,NA,NA,NA,NA
stpQQR180,5-Aminonaphthalene-2-sulfonic acid|5-Amino-2-naphthalenesulfonic acid,NC1=C2C=CC(=CC2=CC=C1)S(O)(=O)=O,223.03031,C10H9NO3S,"InChI=1S/C10H9NO3S/c11-10-3-1-2-7-6-8(15(12,13)14)4-5-9(7)10/h1-6H,11H2,(H,12,13,14)",CAS_RN: 119-79-9,8408,UWPJYQYRSWYIGZ-UHFFFAOYSA-N,8101,DTXSID6059497,Negative,NA,NA,NA,NA,NA,NA,SM834151,[M-H]-,HCD35,222.023:158.0611:107.0491,222.023;158.0611;107.0491,CASMI_2016
stpQQR181,6-Bromo-2(1H)-quinolinone|6-Bromoquinolin-2(1H)-one|6-Bromo-1H-quinolin-2-one,BrC1=CC2=C(NC(=O)C=C2)C=C1,222.96328,C9H6BrNO,"InChI=1S/C9H6BrNO/c10-7-2-3-8-6(5-7)1-4-9(12)11-8/h1-5H,(H,11,12)",CAS_RN: 1810-66-8,12378943,YLAFBGATSQRSTB-UHFFFAOYSA-N,10691564,DTXSID80495319,Positive,SM834202,[M+H]+,HCD35,223.9708:205.9602:127.0418,205.9602;127.0418,CASMI_2016,NA,NA,NA,NA,NA,NA
stpQQR182,"Capecitabine|pentyl N-[1-[(2R,3R,4S,5R)-3,4-dihydroxy-5-methyloxolan-2-yl]-5-fluoro-2-oxopyrimidin-4-yl]carbamate",CCCCCOC(=O)NC1=NC(=O)N(C=C1F)[C@@H]1O[C@H](C)[C@@H](O)[C@H]1O,359.14926,C15H22FN3O6,"InChI=1S/C15H22FN3O6/c1-3-4-5-6-24-15(23)18-12-9(16)7-19(14(22)17-12)13-11(21)10(20)8(2)25-13/h7-8,10-11,13,20-21H,3-6H2,1-2H3,(H,17,18,22,23)/t8-,10-,11-,13-/m1/s1",CAS_RN: 958887-39-3,60953,GAGWJHPBXLXJQN-UORFTKCHSA-N,54916,DTXSID3046451,Positive/Negative,AU214001|AU214002|AU214003|AU214004|AU214005;SM834302;EQ284501|EQ284505|EQ284506,[M+H]+;[M+H]+;[M+H]+,CID10|CID20|CID30|CID40|CID50;HCD35;HCD15|HCD75|HCD90,244.1091:245.1118:360.1556|244.1088:174.0294:130.0399|174.0299:130.0402:244.1092|130.0402:174.0296:131.043|130.0404:174.0301:156.0198;244.1094:174.0311:130.0412;244.109:174.0307:360.1561|130.0411:113.0145:87.0352|130.0411:113.0145:87.0352,245.1118;244.1091;174.03;156.0198;131.043;130.0404;113.0145;87.0352,Athens_Univ;CASMI_2016;Eawag,SM834351;EQ284551|EQ284552|EQ284553|EQ284554|EQ284555|EQ284556;UF412951|UF412952|UF412953|UF412954,[M-H]-;[M-H]-;[M-H]-,HCD35;HCD15|HCD30|HCD45|HCD60|HCD75|HCD90;HCD55|HCD80|CID35|CID55,358.142:154.0058:153.0105;358.1419:154.0058:242.0946|154.0058:358.142:153.0107|154.0058:153.0106:125.0157|153.0106:154.0058:125.0156|153.0106:125.0156:154.0058|125.0157:153.0106:106.0173;358.142:199.1448:154.0058|154.006:199.1442:358.1423|154.0059:199.0889:199.1445|154.006:199.0889:284.1055,358.142;284.1055;242.0946;199.1445;199.0889;154.0058;153.0106;125.01565;106.0173,CASMI_2016;Eawag;UFZ
stpQQR183,"m-Xylene-4-sulfonic acid|2,4-dimethylbenzenesulfonic acid",Cc1ccc(c(c1)C)S(=O)(=O)O,186.03507,C8H10O3S,"InChI=1S/C8H10O3S/c1-6-3-4-8(7(2)5-6)12(9,10)11/h3-5H,1-2H3,(H,9,10,11)",CAS_RN: 88-61-9,6938,CHZLVSBMXZSPNN-UHFFFAOYSA-N,6672,DTXSID1047023,Negative,NA,NA,NA,NA,NA,NA,SM834451,[M-H]-,HCD35,185.0277,185.0277,CASMI_2016
stpQQR184,"Secobarbital|5-Pentan-2-yl-5-prop-2-enyl-1,3-diazinane-2,4,6-trione",CCCC(C)C1(CC=C)C(=O)NC(=O)NC1=O,238.13174,C12H18N2O3,"InChI=1S/C12H18N2O3/c1-4-6-8(3)12(7-5-2)9(15)13-11(17)14-10(12)16/h5,8H,2,4,6-7H2,1,3H3,(H2,13,14,15,16,17)",CAS_RN: 76-73-3,5193,KQPKPCNLIDLUMF-UHFFFAOYSA-N,5005,DTXSID6044145,Negative,NA,NA,NA,NA,NA,NA,SM834653,[M-H]-,HCD35,237.1245:194.1189,237.1245;194.1189,CASMI_2016
stpQQR185,Warfarin|4-hydroxy-3-(3-oxo-1-phenylbutyl)chromen-2-one,CC(=O)CC(C1=CC=CC=C1)C1=C(O)C2=CC=CC=C2OC1=O,308.10486,C19H16O4,"InChI=1S/C19H16O4/c1-12(20)11-15(13-7-3-2-4-8-13)17-18(21)14-9-5-6-10-16(14)23-19(17)22/h2-10,15,21H,11H2,1H3",CAS_RN: 81-81-2,54678486,PJVWKTKQMONHTI-UHFFFAOYSA-N,10442445,DTXSID5023742,Positive/Negative,SM834702;UF404201|UF404202|UF404203|UF404204,[M+H]+;[M+H]+,HCD35;HCD55|HCD80|CID35|CID55,163.0391:251.0705:309.1124;251.0702:163.039:183.0804|121.0284:163.039:155.0855|163.039:251.0704:147.0805|163.0389:251.0703:147.0804,251.07035;183.0804;163.039;155.0855;147.08045;121.0284,CASMI_2016;UFZ,SM834752;UF404251|UF404252|UF404253|UF404254,[M-H]-;[M-H]-,HCD35;HCD55|HCD80|CID35|CID55,307.0975:161.0244:250.0636;307.0974|307.0973:161.0243:250.0636|161.0244:250.0635:117.0346|161.0244:250.0634:117.0346,307.0974;250.06355;161.0244;117.0346,CASMI_2016;UFZ
stpQQR186,2-Methyl-6-phenyl-4H-pyran-4-one|2-methyl-6-phenylpyran-4-one,CC1=CC(=O)C=C(O1)C1=CC=CC=C1,186.06808,C12H10O2,"InChI=1S/C12H10O2/c1-9-7-11(13)8-12(14-9)10-5-3-2-4-6-10/h2-8H,1H3",CAS_RN: 1013-99-6,120521,PEYODCCEJQCEBL-UHFFFAOYSA-N,107597,DTXSID10143831,Positive/Negative,SM834801,[M+H]+,HCD35,187.0753:103.0542:85.0284,103.0542;85.0284,CASMI_2016,SM834853,[M-H]-,HCD35,185.0608:157.0659:184.053,185.0608;184.053;157.0659,CASMI_2016
stpQQR187,"3,3`-Biphenol",OC1=CC(=CC=C1)C1=CC(O)=CC=C1,186.06808,C12H10O2,"InChI=1S/C12H10O2/c13-11-5-1-3-9(7-11)10-4-2-6-12(14)8-10/h1-8,13-14H",CAS_RN: 612-76-0,69165,VZQSBJKDSWXLKX-UHFFFAOYSA-N,62380,DTXSID3071432,Positive/Negative,SM835001,[M+H]+,HCD35,187.0753:103.0542:85.0284,103.0542;85.0284,CASMI_2016,SM835053,[M-H]-,HCD35,185.0608:157.0659:184.053,185.0608;184.053;157.0659,CASMI_2016
stpQQR188,"Diethyl phthalate|Diethyl benzene-1,2-dicarboxylate",CCOC(=O)C1=CC=CC=C1C(=O)OCC,222.08921,C12H14O4,"InChI=1S/C12H14O4/c1-3-15-11(13)9-7-5-6-8-10(9)12(14)16-4-2/h5-8H,3-4H2,1-2H3",CAS_RN: 84-66-2,6781,FLKPEMZONWLCSK-UHFFFAOYSA-N,13837303,DTXSID7021780,Positive/Negative,SM835301;EQ367201|EQ367202|EQ367203|EQ367204|EQ367205|EQ367206|EQ367207|EQ367208|EQ367209,[M+H]+;[M+H]+,HCD35;HCD15|HCD30|HCD45|HCD60|HCD75|HCD90|HCD120|HCD150|HCD180,149.0233:177.0546:121.0284;177.0545:149.0233:65.0385|149.0233:177.0546:65.0385|149.0233:177.0547:121.0284|149.0233:121.0284:121.0396|149.0233:121.0284:121.0396|65.0385:149.0233:121.0284|65.0386:121.0396:121.0284|65.0386:53.0022:121.0396|65.0386:53.0022:67.9893,177.0546;149.0233;121.0396;121.0284;67.9893;65.03855;53.0022,CASMI_2016;Eawag,EQ367251|EQ367252|EQ367253|EQ367254|EQ367255|EQ367256|EQ367257|EQ367258,[M-H]-,HCD15|HCD30|HCD45|HCD60|HCD75|HCD90|HCD120|HCD150,221.0821:71.0503:69.0347|71.0503:121.0296:69.0346|71.0503:121.0296:69.0346|71.0503:121.0296:69.0346|71.0503:69.0346:121.0296|71.0503:75.0241:69.0347|75.0241:69.0346:71.0503|75.0241:69.0347,221.0821;121.0296;75.0241;71.0503;69.0346,Eawag
stpQQR189,"Hexachlorophene|Hexachlorophen|3,4,6-trichloro-2-[(2,3,5-trichloro-6-hydroxyphenyl)methyl]phenol",OC1=C(CC2=C(Cl)C(Cl)=CC(Cl)=C2O)C(Cl)=C(Cl)C=C1Cl,403.8499,C13H6Cl6O2,"InChI=1S/C13H6Cl6O2/c14-6-2-8(16)12(20)4(10(6)18)1-5-11(19)7(15)3-9(17)13(5)21/h2-3,20-21H,1H2",CAS_RN: 70-30-4,3598,ACGUYXCXAPNIKK-UHFFFAOYSA-N,3472,DTXSID6020690,Negative,NA,NA,NA,NA,NA,NA,SM835553;ETS00124,[M-H]-;[M-H]-,HCD35;HCDscaled by m/z,402.8425:194.9176:366.8657;194.9175:366.8653:302.894,402.8425;366.8655;302.894;194.91755,CASMI_2016;Eawag_Additional_Specs2
stpQQR190,"Hexazinone|3-Cyclohexyl-6-(dimethylamino)-1-methyl-1,3,5-triazine-2,4-dione",CN(C)C1=NC(=O)N(C2CCCCC2)C(=O)N1C,252.15863,C12H20N4O2,"InChI=1S/C12H20N4O2/c1-14(2)10-13-11(17)16(12(18)15(10)3)9-7-5-4-6-8-9/h9H,4-8H2,1-3H3",CAS_RN: 51235-04-2,39965,CAWXEEYDBZRFPE-UHFFFAOYSA-N,36542,DTXSID4024145,Positive,SM847401;EQ025601|EQ025602|EQ025603|EQ025604|EQ025605|EQ025606|EQ025607|EQ025608|EQ025609,[M+H]+;[M+H]+,HCD35;HCD15|HCD30|HCD45|HCD60|HCD75|HCD90|HCD120|HCD150|HCD180,171.0876:253.1659:71.0604;253.1659:171.0876:71.0603|171.0876:253.166:71.0603|171.0876:71.0604:85.076|71.0604:171.0877:85.076|71.0604:85.076:171.0877|71.0604:85.076:83.024|71.0604:85.076:58.0652|71.0604:69.0448:85.0761|69.0448:71.0604:55.0291,171.0876;85.076;83.024;71.0604;69.0448;58.0652;55.0291,CASMI_2016;Eawag,NA,NA,NA,NA,NA,NA
stpQQR191,"Indoline|Indoline|2,3-dihydro-1H-indole",C1CC2=CC=CC=C2N1,119.0735,C8H9N,"InChI=1S/C8H9N/c1-2-4-8-7(3-1)5-6-9-8/h1-4,9H,5-6H2",CAS_RN: 496-15-1,10328,LPAGFVYQRIESJQ-UHFFFAOYSA-N,9905,DTXSID9052133,Positive,SM836003,[M+H]+,HCD35,120.0806:103.0541:118.065,118.065;103.0541,CASMI_2016,NA,NA,NA,NA,NA,NA
stpQQR192,Methyl pyrazine 2-carboxylate|Methyl pyrazine-2-carboxylate,COC(=O)C1=CN=CC=N1,138.04293,C6H6N2O2,"InChI=1S/C6H6N2O2/c1-10-6(9)5-4-7-2-3-8-5/h2-4H,1H3",CAS_RN: 6164-79-0,72662,TWIIRMSFZNYMQE-UHFFFAOYSA-N,65523,DTXSID4064131,Positive,SM836401,[M+H]+,HCD35,97.0395:125.0344:139.05,125.0344;97.0395,CASMI_2016,NA,NA,NA,NA,NA,NA
stpQQR193,Morpholine|Morpholin,C1COCCN1,87.06841,C4H9NO,"InChI=1S/C4H9NO/c1-3-6-4-2-5-1/h5H,1-4H2",CAS_RN: 110-91-8,8083,YNAVUWVOSKDBBP-UHFFFAOYSA-N,13837537,DTXSID2025688,Positive,SM836501,[M+H]+,HCD35,88.0756:70.0651:68.0495,70.0651;68.0495,CASMI_2016,NA,NA,NA,NA,NA,NA
stpQQR194,N-Phenyl-2-naphthylamine|N-Phenylnaphthalen-2-amine,N(C1=CC=CC=C1)C1=CC2=CC=CC=C2C=C1,219.1048,C16H13N,"InChI=1S/C16H13N/c1-2-8-15(9-3-1)17-16-11-10-13-6-4-5-7-14(13)12-16/h1-12,17H",CAS_RN: 135-88-6,8679,KEQFTVQCIQJIQW-UHFFFAOYSA-N,8355,DTXSID4021131,Positive,SM836601;UA002801|UA002803,[M+H]+;[M+H]+,HCD35;CID35|CID35,220.112:143.0729:92.0495;220.1122:205.0888:143.0731|220.1119:143.073:205.0887,205.08875;143.073;92.0495,CASMI_2016;UFZ_Additional_Specs,NA,NA,NA,NA,NA,NA
stpQQR195,Phenyltetrazole|5-Phenyl-1H-tetrazole|5-phenyl-2H-tetrazole,N1N=NN=C1C1=CC=CC=C1,146.05925,C7H6N4,"InChI=1S/C7H6N4/c1-2-4-6(5-3-1)7-8-10-11-9-7/h1-5H,(H,8,9,10,11)",CAS_RN: 18039-42-4,87425,MARUHZGHZWCEQU-UHFFFAOYSA-N,78860,DTXSID6044858,Positive,SM836801,[M+H]+,HCD35,104.0494:147.0664:119.0603,119.0603;104.0494,CASMI_2016,NA,NA,NA,NA,NA,NA
stpQQR196,"Benzyl butyl phthalate|2-O-benzyl 1-O-butyl benzene-1,2-dicarboxylate|2-O-benzyl 1-O-butyl benzene-1,2-dicarboxylate",CCCCOC(=O)C1=CC=CC=C1C(=O)OCC1=CC=CC=C1,312.13616,C19H20O4,"InChI=1S/C19H20O4/c1-2-3-13-22-18(20)16-11-7-8-12-17(16)19(21)23-14-15-9-5-4-6-10-15/h4-12H,2-3,13-14H2,1H3",CAS_RN: 85-68-7,2347,IRIAEXORFWYRCZ-UHFFFAOYSA-N,2257,DTXSID3020205,Positive,SM836901;EQ359701|EQ359702|EQ359703|EQ359704|EQ359705|EQ359706|EQ359707|EQ359708|EQ359709,[M+H]+;[M+H]+,HCD35;HCD15|HCD30|HCD45|HCD60|HCD75|HCD90|HCD120|HCD150|HCD180,91.0542:149.0234:205.086;91.0542:149.0232:205.0859|91.0542:149.0233:57.0698|91.0542:149.0233:65.0385|91.0542:149.0233:65.0385|91.0542:65.0385:149.0233|91.0542:65.0385:121.0284|91.0542:65.0385:63.0229|65.0385:91.0542:63.0229|65.0386:91.0542:63.0229,205.08595;149.0233;121.0284;91.0542;65.0385;63.0229;57.0698,CASMI_2016;Eawag,NA,NA,NA,NA,NA,NA
stpQQR197,"Diallyl phthalate|bis(prop-2-enyl) benzene-1,2-dicarboxylate|bis(prop-2-enyl) benzene-1,2-dicarboxylate",C=CCOC(=O)C1=CC=CC=C1C(=O)OCC=C,246.08921,C14H14O4,"InChI=1S/C14H14O4/c1-3-9-17-13(15)11-7-5-6-8-12(11)14(16)18-10-4-2/h3-8H,1-2,9-10H2",CAS_RN: NA,8560,QUDWYFHPNIMBFC-UHFFFAOYSA-N,8242,DTXSID7020392,Positive,SM837002,[M+H]+,HCD35,189.0546:53.0024:149.0231,189.0546;149.0231;53.0024,CASMI_2016,NA,NA,NA,NA,NA,NA
stpQQR198,Piperidine,C1CCNCC1,85.08915,C5H11N,"InChI=1S/C5H11N/c1-2-4-6-5-3-1/h6H,1-5H2",CAS_RN: 110-89-4,8082,NQRYJNQNLNOLGT-UHFFFAOYSA-N,7791,DTXSID6021165,Positive,SM837103,[M+H]+,HCD35,86.0962:69.0698:67.0542,69.0698;67.0542,CASMI_2016,NA,NA,NA,NA,NA,NA
stpQQR199,"Purpurin|1,2,4-trihydroxyanthracene-9,10-dione",OC1=CC(O)=C2C(=O)C3=CC=CC=C3C(=O)C2=C1O,256.03717,C14H8O5,"InChI=1S/C14H8O5/c15-8-5-9(16)14(19)11-10(8)12(17)6-3-1-2-4-7(6)13(11)18/h1-5,15-16,19H",CAS_RN: 81-54-9,6683,BBNQQADTFFCFGB-UHFFFAOYSA-N,6431,DTXSID4021214,Negative,NA,NA,NA,NA,NA,NA,SM837253,[M-H]-,HCD35,255.03:227.035:183.0453,255.03;227.035;183.0453,CASMI_2016
stpQQR200,"Sulcotrione|2-(2-chloro-4-methylsulfonylbenzoyl)cyclohexane-1,3-dione",CS(=O)(=O)C1=CC=C(C(=O)C2C(=O)CCCC2=O)C(Cl)=C1,328.01722,C14H13ClO5S,"InChI=1S/C14H13ClO5S/c1-21(19,20)8-5-6-9(10(15)7-8)14(18)13-11(16)3-2-4-12(13)17/h5-7,13H,2-4H2,1H3",CAS_RN: 99105-77-8,91760,PQTBTIFWAXVEPB-UHFFFAOYSA-N,82858,DTXSID9058230,Positive/Negative,SM865801;EA029001|EA029002|EA029003|EA029004|EA029005|EA029006|EA029007|EA029008|EA029009|EA029010|EA029011|EA029012|EA029013|EA029014;UF401301|UF401302|UF401303|UF401304,[M+H]+;[M+H]+;[M+H]+,HCD35;CID35|HCD15|HCD30|HCD45|HCD60|HCD75|HCD90|HCD15|HCD30|HCD45|HCD60|HCD75|HCD90|CID35;HCD55|HCD80|CID35|CID55,329.0245:157.0495:111.044;139.0391:293.0477:111.0441|329.0242:139.0389:157.0492|139.0391:329.0242:157.0495|139.039:111.0441:157.0494|111.0441:68.9971:139.039|68.9971:111.044:139.0389|68.9971:111.044:178.9896|329.0243:139.0389:157.0493|139.039:329.0242:157.0495|139.0389:111.044:157.0494|111.044:68.9971:139.0389|68.9971:111.044:139.0389|68.9971:111.044:149.9867|139.0389:293.0473:111.044;111.0439:139.0389:157.0496|111.044:214.0623:139.0388|139.0389:293.0478:111.044|139.0389:293.0479:111.044,293.04775;214.0623;178.9896;157.04945;149.9867;139.0389;111.044;68.9971,CASMI_2016;Eawag;UFZ,SM865851;EA029051|EA029052|EA029053|EA029054|EA029055|EA029056|EA029058|EA029059|EA029060|EA029061|EA029062|EA029063|EA029064;UF401351|UF401353|UF401354,[M-H]-;[M-H]-;[M-H]-,HCD35;CID35|HCD15|HCD30|HCD45|HCD60|HCD75|HCD15|HCD30|HCD45|HCD60|HCD75|HCD90|CID35;HCD55|CID35|CID55,291.0334:212.0479:215.0351;291.0331:212.0474|291.0333:327.0094|291.0331|291.0337:249.0231:215.0347|215.0351:249.0225:212.0483|215.0347|291.0329:327.0092|291.0328|291.0328:249.0227:215.0344|215.0348:249.0225:212.0481|215.0339|215.0349|291.0328;197.9555|291.033|197.9551:291.0339,327.0093;291.0331;249.0226;215.03475;212.048;197.9553,CASMI_2016;Eawag;UFZ