NORMAN_ID,NAME,SMILES,NEUTRAL_EXACT_MASS,FORMULA,StdInChI,CAS_RN,PUBCHEM_CID,InChIKey,CHEMSPIDER_ID,DTXSID,Preferable Ionization,MB_Records Positive Ionization,Adduct Positive Ionization,Ionisation type and collision energy Positive Ionization,Fragments Positive Ionization,Simplified_fragments_Positive,Institute Positive Ionization,MB_Records Negative Ionization,Adduct Negative Ionization,Ionisation type and collision energy Negative Ionization,Fragments Negative Ionization,Simplified_fragments_Negative,Institute Negative Ionization
stpQQR139,"Triclocarban|1-(4-chlorophenyl)-3-(3,4-dichlorophenyl)urea",ClC1=CC=C(NC(=O)NC2=CC=C(Cl)C(Cl)=C2)C=C1,313.97805,C13H9Cl3N2O,"InChI=1S/C13H9Cl3N2O/c14-8-1-3-9(4-2-8)17-13(19)18-10-5-6-11(15)12(16)7-10/h1-7H,(H2,17,18,19)",CAS_RN: 101-20-2,7547,ICUTUKXCWQYESQ-UHFFFAOYSA-N,7266,DTXSID4026214,Positive/Negative,SM880703;EA298801|EA298802|EA298803|EA298804|EA298805|EA298806|EA298807|EA298808|EA298809|EA298810|EA298811|EA298812|EA298813|EA298814,[M+H]+;[M+H]+,HCD35;CID35|HCD15|HCD30|HCD45|HCD60|HCD75|HCD90|HCD15|HCD30|HCD45|HCD60|HCD75|HCD90|CID35,314.9853:127.0183:161.9871;161.9872:128.0261:127.0183|314.9853:128.0262:161.9872|314.9852:161.9871:128.0261|161.987:128.026:127.0182|127.0183:93.0573:128.0261|127.0182:93.0573:126.0104|127.0182:93.0572:126.0104|314.9851:161.987:128.026|314.985:161.987:128.026|161.987:128.026:127.0182|127.0182:93.0572:128.026|127.0182:93.0572:126.0104|127.0182:93.0572:126.0104|161.987:128.026:127.0182,161.987;128.026;127.0182;126.0104;93.0572,CASMI_2016;Eawag,SM880751;EA298851|EA298859;UF418751|UF418752|UF418753|UF418754,[M-H]-;[M-H]-;[M-H]-,HCD35;CID35|HCD30;HCD55|HCD80|CID35|CID55,159.9727:126.0112:312.9709;159.9724|159.9724;159.9727:197.9493|159.9727|159.9727:197.948|159.9727,312.9709;197.94865;159.9727;126.0112,CASMI_2016;Eawag;UFZ
stpQQR140,"Triclosan|5-chloro-2-(2,4-dichlorophenoxy)phenol",OC1=CC(Cl)=CC=C1OC1=CC=C(Cl)C=C1Cl,287.95116,C12H7Cl3O2,"InChI=1S/C12H7Cl3O2/c13-7-1-3-11(9(15)5-7)17-12-4-2-8(14)6-10(12)16/h1-6,16H",CAS_RN: 3380-34-5,5564,XEFQLINVKFYRCS-UHFFFAOYSA-N,5363,DTXSID5032498,Negative,NA,NA,NA,NA,NA,NA,SM863253;EQ016853|EQ016854|EQ016855|EQ016856|EQ016857|EQ016858,[M-H]-;[M-H]-,HCD35;HCD45|HCD60|HCD75|HCD90|HCD120|HCD150,286.9439:141.9831;141.9825|141.9827:160.9567|141.9826:160.9567|141.9824:160.9567:89.0032|89.0032:160.9565|89.0033,286.9439;160.9567;141.9826;89.0032,CASMI_2016;Eawag
stpQQR141,Tri-isobutyl phosphate|Triisobutyl phosphate|tris(2-methylpropyl) phosphate,CC(C)COP(=O)(OCC(C)C)OCC(C)C,266.1647,C12H27O4P,"InChI=1S/C12H27O4P/c1-10(2)7-14-17(13,15-8-11(3)4)16-9-12(5)6/h10-12H,7-9H2,1-6H3",CAS_RN: 126-71-6,31355,HRKAMJBPFPHCSD-UHFFFAOYSA-N,29088,DTXSID8040698,Positive,SM824801;SM880801;UF418803|UF418804,[M+H]+;[M+H]+;[M+H]+,HCD35;HCD35;CID35|CID55,98.9842:155.0468:57.0701;98.9842:155.0468:57.0701;98.9845:155.0474|98.9845:155.0474,155.0471;98.98435;57.0701,CASMI_2016;CASMI_2016;UFZ,NA,NA,NA,NA,NA,NA
stpQQR142,Triphenylphosphate|Triphenyl phosphate,O=P(OC1=CC=CC=C1)(OC1=CC=CC=C1)OC1=CC=CC=C1,326.0708,C18H15O4P,"InChI=1S/C18H15O4P/c19-23(20-16-10-4-1-5-11-16,21-17-12-6-2-7-13-17)22-18-14-8-3-9-15-18/h1-15H",CAS_RN: 115-86-6,8289,XZZNDPSIHUTMOC-UHFFFAOYSA-N,7988,DTXSID1021952,Positive/Negative,SM879502;EQ363801|EQ363802|EQ363803|EQ363804|EQ363805|EQ363806|EQ363807|EQ363808|EQ363809;UF417501|UF417502|UF417503|UF417504,[M+H]+;[M+H]+;[M+H]+,HCD35;HCD15|HCD30|HCD45|HCD60|HCD75|HCD90|HCD120|HCD150|HCD180;HCD55|HCD80|CID35|CID55,327.0782:233.0363:152.0621;327.0781:77.0388:152.0624|327.0781:233.0364:153.07|233.0364:153.0699:251.0469|152.0621:95.0492:153.0699|152.0621:95.0492:77.0386|152.0621:95.0492:77.0385|152.0621:77.0386:95.0492|50.0152:51.023:152.0622|50.0152:51.023:150.0466;251.0477:153.0704:152.0625|152.0626:77.0388:168.0576|233.0373:215.0267:229.1023|215.0266:233.0371:251.0479,251.0477;233.0364;229.1023;215.02665;168.0576;153.06995;152.0621;150.0466;95.0492;77.0386;51.023;50.0152,CASMI_2016;Eawag;UFZ,UF417551|UF417552|UF417553|UF417554,[M-H]-,HCD55|HCD80|CID35|CID55,325.0636|325.0631|169.066:183.0121:231.0219|169.0659:183.0121:231.0215,325.06335;231.0217;183.0121;169.06595,UFZ
stpQQR143,Triphenylphosphine oxide|Diphenylphosphorylbenzene,O=P(C1=CC=CC=C1)(C1=CC=CC=C1)C1=CC=CC=C1,278.08605,C18H15OP,"InChI=1S/C18H15OP/c19-20(16-10-4-1-5-11-16,17-12-6-2-7-13-17)18-14-8-3-9-15-18/h1-15H",CAS_RN: 791-28-6,13097,FIQMHBFVRAXMOP-UHFFFAOYSA-N,12549,DTXSID2022121,Positive,SM881301;EQ358701|EQ358702|EQ358703|EQ358704|EQ358705|EQ358706|EQ358707|EQ358708|EQ358709,[M+H]+;[M+H]+,HCD35;HCD15|HCD30|HCD45|HCD60|HCD75|HCD90|HCD120|HCD150|HCD180,279.0933:219.0569:201.0463;279.0934:57.0699:71.0855|279.0934:57.0699:71.0855|57.0699:219.057:279.0934|121.0284:219.057:57.0699|121.0284:65.0386:121.0396|65.0386:121.0284:121.0396|65.0386:121.0396:121.0284|65.0386:53.0022:51.023|65.0386:53.0022:51.023,219.057;201.0463;121.0396;121.0284;71.0855;65.0386;57.0699;53.0022;51.023,CASMI_2016;Eawag,NA,NA,NA,NA,NA,NA
stpQQR144,Tris(2-chloroethyl)phosphate|Tris(2-chloroethyl) phosphate,ClCCOP(=O)(OCCCl)OCCCl,283.95388,C6H12Cl3O4P,"InChI=1S/C6H12Cl3O4P/c7-1-4-11-14(10,12-5-2-8)13-6-3-9/h1-6H2",CAS_RN: 115-96-8,8295,HQUQLFOMPYWACS-UHFFFAOYSA-N,7994,DTXSID5021411,Positive,SM879001,[M+H]+,HCD35,62.9997:98.9842:284.9612,98.9842;62.9997,CASMI_2016,NA,NA,NA,NA,NA,NA
stpQQR145,4-Aminophenol,NC1=CC=C(O)C=C1,109.05276,C6H7NO,"InChI=1S/C6H7NO/c7-5-1-3-6(8)4-2-5/h1-4,8H,7H2",CAS_RN: 51-78-5,403,PLIKAWJENQZMHA-UHFFFAOYSA-N,392,DTXSID3024499,Positive,SM825501,[M+H]+,HCD35,110.06:92.0494:65.0386,92.0494;65.0386,CASMI_2016,NA,NA,NA,NA,NA,NA
stpQQR146,4`-Bromacetanilide|4`-Bromoacetanilid|N-(4-bromophenyl)acetamide,CC(=O)NC1=CC=C(Br)C=C1,212.97893,C8H8BrNO,"InChI=1S/C8H8BrNO/c1-6(11)10-8-4-2-7(9)3-5-8/h2-5H,1H3,(H,10,11)",CAS_RN: 103-88-8,7683,MSLICLMCQYQNPK-UHFFFAOYSA-N,7399,DTXSID6059283,Positive/Negative,SM825601,[M+H]+,HCD35,93.0573:213.9861:171.9756,171.9756;93.0573,CASMI_2016,SM825651,[M-H]-,HCD35,211.9717:169.9611,211.9717;169.9611,CASMI_2016
stpQQR147,4-Chloroaniline,NC1=CC=C(Cl)C=C1,127.01888,C6H6ClN,"InChI=1S/C6H6ClN/c7-5-1-3-6(8)4-2-5/h1-4H,8H2",CAS_RN: 106-47-8,7812,QSNSCYSYFYORTR-UHFFFAOYSA-N,13869339,DTXSID9020295,Positive,SM825801;UF413801|UF413802|UF413803|UF413804,[M+H]+;[M+H]+,HCD35;HCD55|HCD80|CID35|CID55,128.026:93.0572:139.0055;128.0266:93.0576:139.0063|93.0576:128.0266:139.0063|93.0575:128.0265|93.0575,93.0575,CASMI_2016;UFZ,NA,NA,NA,NA,NA,NA
stpQQR148,4-Methylpyrimidine|4-Methylpyrimidin,CC1=CC=NC=N1,94.0531,C5H6N2,"InChI=1S/C5H6N2/c1-5-2-3-6-4-7-5/h2-4H,1H3",CAS_RN: 3438-46-8,18922,LVILGAOSPDLNRM-UHFFFAOYSA-N,17867,DTXSID5063027,Positive,SM826401,[M+H]+,HCD35,95.0603:68.0495:67.0543,68.0495;67.0543,CASMI_2016,NA,NA,NA,NA,NA,NA
stpQQR149,Cyclohexylamine,NC1CCCCC1,99.1048,C6H13N,"InChI=1S/C6H13N/c7-6-4-2-1-3-5-6/h6H,1-5,7H2",CAS_RN: 62-53-3,7965,PAFZNILMFXTMIY-UHFFFAOYSA-N,7677,DTXSID1023996,Positive,SM826601,[M+H]+,HCD35,83.0855:100.1121:55.0544,83.0855;55.0544,CASMI_2016,NA,NA,NA,NA,NA,NA
stpQQR150,"Dibenz[a,h]acridine|Dibenzo[a,h]acridine",C1=CC=C2C(C=CC3=NC4=C(C=CC5=CC=CC=C45)C=C23)=C1,279.1048,C21H13N,InChI=1S/C21H13N/c1-3-7-17-14(5-1)11-12-20-19(17)13-16-10-9-15-6-2-4-8-18(15)21(16)22-20/h1-13H,CAS_RN: 226-36-8,9183,JNCSIWAONQTVCF-UHFFFAOYSA-N,8828,DTXSID3059761,Positive,SM826701,[M+H]+,HCD35,280.1119:279.1039:278.0958,279.1039;278.0958,CASMI_2016,NA,NA,NA,NA,NA,NA
stpQQR151,"Dicyclohexyl phthalate|Dicyclohexyl benzene-1,2-dicarboxylate",O=C(OC1CCCCC1)C1=CC=CC=C1C(=O)OC1CCCCC1,330.18311,C20H26O4,"InChI=1S/C20H26O4/c21-19(23-15-9-3-1-4-10-15)17-13-7-8-14-18(17)20(22)24-16-11-5-2-6-12-16/h7-8,13-16H,1-6,9-12H2",CAS_RN: 84-62-8,6777,VOWAEIGWURALJQ-UHFFFAOYSA-N,6519,DTXSID5025021,Positive,SM827002,[M+H]+,HCD35,149.0233:167.0338:249.1121,249.1121;167.0338;149.0233,CASMI_2016,NA,NA,NA,NA,NA,NA
stpQQR152,Benzocaine|Ethyl-p-aminobenzoate|Ethyl 4-aminobenzoate,CCOC(=O)C1=CC=C(N)C=C1,165.07898,C9H11NO2,"InChI=1S/C9H11NO2/c1-2-12-9(11)7-3-5-8(10)6-4-7/h3-6H,2,10H2,1H3",CAS_RN: 94-09-7,2337,BLFLLBZGZJTVJG-UHFFFAOYSA-N,13854242,DTXSID8021804,Positive,SM862301,[M+H]+,HCD35,138.0549:94.0651:120.0444,138.0549;120.0444;94.0651,CASMI_2016,NA,NA,NA,NA,NA,NA
stpQQR153,"1,3-Dihydroxyanthraquinone|Xanthopurpurin|1,3-dihydroxyanthracene-9,10-dione",Oc1cc(O)c2C(=O)c3ccccc3C(=O)c2c1,240.04226,C14H8O4,"InChI=1S/C14H8O4/c15-7-5-10-12(11(16)6-7)14(18)9-4-2-1-3-8(9)13(10)17/h1-6,15-16H",CAS_RN: 518-83-2,196978,WPWWKBNOXTZDQJ-UHFFFAOYSA-N,170598,DTXSID6075431,Negative,NA,NA,NA,NA,NA,NA,SM827751,[M-H]-,HCD35,239.0349:211.0401:195.0451,239.0349;211.0401;195.0451,CASMI_2016
stpQQR154,"Benzanthrone|1,9-Benz-10-anthrone|Benzo[a]phenalen-7-one",O=C1c2ccccc2-c2cccc3cccc1c23,230.07316,C17H10O,InChI=1S/C17H10O/c18-17-14-8-2-1-7-12(14)13-9-3-5-11-6-4-10-15(17)16(11)13/h1-10H,CAS_RN: 82-05-3,6697,HUKPVYBUJRAUAG-UHFFFAOYSA-N,6442,DTXSID8052566,Positive,SM828202;UA001201|UA001203,[M+H]+;[M+H]+,HCD35;CID35|CID35,231.0805:203.0856:202.0777;203.0853:202.0775:231.0804|231.0802:203.0855:202.0777,203.0855;202.0777,CASMI_2016;UFZ_Additional_Specs,NA,NA,NA,NA,NA,NA
stpQQR155,"10-Azabenzo[a]pyrene|10-Azabenzo(a)pyrene|pyreno[1,2-b]pyridine",c1cnc2c(c1)cc1ccc3cccc4ccc2c1c34,253.08915,C19H11N,InChI=1S/C19H11N/c1-3-12-6-7-14-11-15-5-2-10-20-19(15)16-9-8-13(4-1)17(12)18(14)16/h1-11H,CAS_RN: 189-92-4,12435805,BYFIUFNRSNKODH-UHFFFAOYSA-N,19953113,DTXSID10172282,Positive,SM828302,[M+H]+,HCD35,254.0964:253.0886:226.0768,253.0886;226.0768,CASMI_2016,NA,NA,NA,NA,NA,NA
stpQQR156,"1-Hydroxyanthraquinone|1-hydroxyanthracene-9,10-dione",Oc1cccc2C(=O)c3ccccc3C(=O)c12,224.04734,C14H8O3,"InChI=1S/C14H8O3/c15-11-7-3-6-10-12(11)14(17)9-5-2-1-4-8(9)13(10)16/h1-7,15H",CAS_RN: 129-43-1,8512,BTLXPCBPYBNQNR-UHFFFAOYSA-N,8198,DTXSID1020722,Positive/Negative,UA002501|UA002503,[M+H]+,CID35|CID35,197.0599:153.0701:105.0336|197.0596:153.0699:105.0334,197.05975;153.07;105.0335,UFZ_Additional_Specs,SM828451;UA002502|UA002505,[M-H]-;[M-H]-,HCD35;CID35|CID35,223.04:195.0451;195.0451:223.0393:152.023|224.0475,223.03965;195.0451;152.023,CASMI_2016;UFZ_Additional_Specs
stpQQR157,"2-Hydroxyanthraquinone|2-hydroxyanthracene-9,10-dione",Oc1ccc2C(=O)c3ccccc3C(=O)c2c1,224.04734,C14H8O3,"InChI=1S/C14H8O3/c15-8-5-6-11-12(7-8)14(17)10-4-2-1-3-9(10)13(11)16/h1-7,15H",CAS_RN: 605-32-3,11796,GCDBEYOJCZLKMC-UHFFFAOYSA-N,11303,DTXSID4049327,Positive/Negative,UA002401|UA002403,[M+H]+,CID35|CID35,197.0596:153.0698:105.0334|197.0596:153.0699:169.0648,197.0596;169.0648;153.06985;105.0334,UFZ_Additional_Specs,SM828951;UA002402,[M-H]-;[M-H]-,HCD35;CID35,223.04:195.0451;195.0452:223.0398:154.0377,223.0399;195.04515;154.0377,CASMI_2016;UFZ_Additional_Specs
stpQQR158,4-Nitroquinoline-1-oxide|4-Nitroquinoline N-oxide|4-nitro-1-oxidoquinolin-1-ium,[O-][N+](=O)c1cc[n+]([O-])c2ccccc12,190.03784,C9H6N2O3,InChI=1S/C9H6N2O3/c12-10-6-5-9(11(13)14)7-3-1-2-4-8(7)10/h1-6H,CAS_RN: 56-57-5,5955,YHQDZJICGQWFHK-UHFFFAOYSA-N,5740,DTXSID5025780,Positive/Negative,SM829401;UA003701|UA003703,[M+H]+;[M+H]+,HCD35;CID35|CID35,191.0451:145.0522:161.0471;161.0473:145.0524:104.0496|161.0483:145.0532:174.0436,174.0436;161.0473;145.0524;104.0496,CASMI_2016;UFZ_Additional_Specs,UA003705,[M]-,CID35,160.0402:144.0454:116.0505,160.0402;144.0454;116.0505,UFZ_Additional_Specs
stpQQR159,Acridinone|1-Acridinol|10H-acridin-1-one,O=c1cccc2[nH]c3ccccc3cc12,195.06841,C13H9NO,"InChI=1S/C13H9NO/c15-13-7-3-6-12-10(13)8-9-4-1-2-5-11(9)14-12/h1-8,14H",CAS_RN: 6322-52-7,225737,DSTNUFDTTMKLQR-UHFFFAOYSA-N,196262,DTXSID90280096,Positive/Negative,SM830402,[M+H]+,HCD35,196.0758:167.0728:195.0681,195.0681;167.0728,CASMI_2016,SM830451,[M-H]-,HCD35,194.0611,194.0611,CASMI_2016
stpQQR160,Benz(c)acridine|Benz[c]acridine|benzo[c]acridine,c1ccc2nc3c(ccc4ccccc34)cc2c1,229.08915,C17H11N,InChI=1S/C17H11N/c1-3-7-15-12(5-1)9-10-14-11-13-6-2-4-8-16(13)18-17(14)15/h1-11H,CAS_RN: 225-51-4,9181,OAPPEBNXKAKQGS-UHFFFAOYSA-N,8826,DTXSID9059759,Positive,SM811901;SM830601,[M+H]+;[M+H]+,HCD35;HCD35,230.0963:229.0881;230.0965:229.0884:228.0801,229.08825;228.0801,CASMI_2016;CASMI_2016,NA,NA,NA,NA,NA,NA
stpQQR161,"Dibenzo[a,j]acridine|Dibenz[a,j]acridine",c1ccc2c(c1)ccc1nc3ccc4ccccc4c3cc21,279.1048,C21H13N,InChI=1S/C21H13N/c1-3-7-16-14(5-1)9-11-20-18(16)13-19-17-8-4-2-6-15(17)10-12-21(19)22-20/h1-13H,CAS_RN: 224-42-0,9177,ANUCHZVCBDOPOX-UHFFFAOYSA-N,8822,DTXSID4059758,Positive,SM818002;SM830901,[M+H]+;[M+H]+,HCD35;HCD35,280.112:279.1041:278.0961;280.1123:279.1043:278.0962,279.1042;278.09615,CASMI_2016;CASMI_2016,NA,NA,NA,NA,NA,NA
stpQQR162,Indazole|1H-indazole,c1n[nH]c2ccccc12,118.0531,C7H6N2,"InChI=1S/C7H6N2/c1-2-4-7-6(3-1)5-8-9-7/h1-5H,(H,8,9)",CAS_RN: 271-44-3,9221,BAXOFTOLAUCFNW-UHFFFAOYSA-N,8866,DTXSID4075374,Positive,SM831203,[M+H]+,HCD35,119.0604:92.0495:65.0387,92.0495;65.0387,CASMI_2016,NA,NA,NA,NA,NA,NA
stpQQR163,"PHIP|1-methyl-6-phenylimidazo[4,5-b]pyridin-2-amine",Cn1c2cc(cnc2[nH]c1=N)-c1ccccc1,224.1062,C13H12N4,"InChI=1S/C13H12N4/c1-17-11-7-10(9-5-3-2-4-6-9)8-15-12(11)16-13(17)14/h2-8H,1H3,(H2,14,15,16)",CAS_RN: 106105-17-3,1530,UQVKZNNCIHJZLS-UHFFFAOYSA-N,1476,DTXSID3037628,Positive/Negative,SM831701;UA000901|UA000903,[M+H]+;[M+H]+,HCD35;CID35|CID35,225.1135:210.0901:208.0871;225.1134:210.0899:208.0869|225.1128:210.0895:208.0865,210.0899;208.0869,CASMI_2016;UFZ_Additional_Specs,SM831754;UA000904,[M-H]-;[M-H]-,HCD35;CID35,223.0985;208.075:128.0629:117.0333,223.0985;208.075;128.0629;117.0333,CASMI_2016;UFZ_Additional_Specs
stpQQR164,"Chloramphenicol|2,2-dichloro-N-[(1R,2R)-1,3-dihydroxy-1-(4-nitrophenyl)propan-2-yl]acetamide",OC[C@@H](NC(=O)C(Cl)Cl)[C@H](O)C1=CC=C(C=C1)[N+]([O-])=O,322.01233,C11H12Cl2N2O5,"InChI=1S/C11H12Cl2N2O5/c12-10(13)11(18)14-8(5-16)9(17)6-1-3-7(4-2-6)15(19)20/h1-4,8-10,16-17H,5H2,(H,14,18)/t8-,9-/m1/s1",CAS_RN: 56-75-7,5959,WIIZWVCIJKGZOK-RKDXNWHRSA-N,5744,DTXSID7020265,Positive/Negative,SM831806;EQ307001|EQ307002|EQ307003|EQ307004|EQ307005|EQ307006,[M+H]+;[M+H]+,HCD35;HCD15|HCD30|HCD45|HCD60|HCD75|HCD90,274.9988:165.0661:305.0095;274.9983:305.0089:241.0055|274.9983:165.0659:241.0055|165.0659:257.9958:82.9449|165.0659:82.945:257.9958|82.945:165.0659:119.0729|82.945:119.0729:118.0651,305.0092;274.9983;257.9958;241.0055;165.0659;119.0729;118.0651;82.945,CASMI_2016;Eawag,SM831851;EQ307051|EQ307052|EQ307053|EQ307054|EQ307055|EQ307056,[M-H]-;[M-H]-,HCD35;HCD15|HCD30|HCD45|HCD60|HCD75|HCD90,152.0353:321.005:257.0335;321.0051:152.0353:257.0335|152.0353:151.0275:176.0352|152.0353:121.0296:151.0275|121.0296:151.0275:152.0353|121.0296:151.0275:82.9461|121.0296:82.9461:151.0274,321.00505;257.0335;176.0352;152.0353;151.0275;121.0296;82.9461,CASMI_2016;Eawag
stpQQR165,Fluoxetine|N-methyl-3-phenyl-3-[4-(trifluoromethyl)phenoxy]propan-1-amine,CNCCC(OC1=CC=C(C=C1)C(F)(F)F)C1=CC=CC=C1,309.13405,C17H18F3NO,"InChI=1S/C17H18F3NO/c1-21-12-11-16(13-5-3-2-4-6-13)22-15-9-7-14(8-10-15)17(18,19)20/h2-10,16,21H,11-12H2,1H3",CAS_RN: 59333-67-4,3386,RTHCYVBBDHJXIQ-UHFFFAOYSA-N,3269,DTXSID7023067,Positive,AU150901|AU150902|AU150903|AU150904|AU150905;SM832103;EA033401|EA033402|EA033407|EA033408|EA033412|EA033413|EA033414;ET070001|ET070002|ET070003|ET070004|ET070005,[M+H]+;[M+H]+;[M+H]+;[M+H]+,"CID10|CID20|CID30|CID40|CID50;HCD35;CID35|HCD15|HCD90|HCD15|HCD75|HCD90|CID35;HCD15, 30, 45, 60, 70 or 90|HCD15, 30, 45, 60, 70 or 90|HCD15, 30, 45, 60, 70 or 90|HCD15, 30, 45, 60, 70 or 90|HCD15, 30, 45, 60, 70 or 90",310.1421:311.1446:148.1114|265.1577:223.1105:247.1476|219.1161:223.1112:265.1574|204.0926:219.1156:218.1075|204.0923:194.071:167.0847;310.1417:148.1123;148.112|310.1416:148.112|91.0543|310.1412:148.112|91.0542:117.0699|91.0542:117.0699|148.112;117.0696:91.0543|117.0697:91.054:115.0542|117.0697:91.0542:115.0542|148.112|148.112:117.0694,265.15755;247.1476;223.11085;219.11585;218.1075;204.09245;194.071;167.0847;148.112;117.0697;115.0542;91.0542,Athens_Univ;CASMI_2016;Eawag;Eawag_Additional_Specs,NA,NA,NA,NA,NA,NA
stpQQR166,Venlafaxine,COC1=CC=C(C=C1)C(CN(C)C)C1(O)CCCCC1,277.20418,C17H27NO2,"InChI=1S/C17H27NO2/c1-18(2)13-16(17(19)11-5-4-6-12-17)14-7-9-15(20-3)10-8-14/h7-10,16,19H,4-6,11-13H2,1-3H3",CAS_RN: 93413-46-8,5656,PNVNVHUZROJLTJ-UHFFFAOYSA-N,5454,DTXSID6023737,Positive,AU150201|AU150202|AU150203|AU150204|AU150205;SM832201;EA064501|EA064502|EA064503|EA064504|EA064505|EA064506|EA064507|EA064508|EA064509|EA064510|EA064511|EA064512|EA064513|EA064514;ET190001|ET190002|ET190003|ET190004|ET190005;TUE00811|TUE00812|TUE00813,[M+H]+;[M+H]+;[M+H]+;[M+H]+;[M+H]+,"CID10|CID20|CID30|CID40|CID50;HCD35;CID35|HCD15|HCD30|HCD45|HCD60|HCD75|HCD90|HCD15|HCD30|HCD45|HCD60|HCD75|HCD90|CID35;HCD15, 30, 45, 60, 70 or 90|HCD15, 30, 45, 60, 70 or 90|HCD15, 30, 45, 60, 70 or 90|HCD15, 30, 45, 60, 70 or 90|HCD15, 30, 45, 60, 70 or 90;NA10.0V|NA20.0V|NA40.0V",278.2126:260.2011:279.2154|260.2006:278.2126:215.1427|121.0639:147.0792:173.0949|121.0643:147.0797:173.0954|121.0643:159.0789:132.056;58.0653:278.2118:260.2013;260.2014:215.1432:121.0643|278.2118:260.2016:58.0651|58.0652:260.2012:278.212|58.0652:121.065:215.1432|58.0652:121.065:147.0807|58.0652:121.0649:147.0805|58.0652:121.065:91.0544|278.212:260.2011:58.0651|58.0652:260.2012:278.2121|58.0652:121.0649:215.1432|58.0652:121.0649:147.0806|58.0652:121.0649:147.0806|58.0652:121.0649:91.0543|260.2011:215.1431:121.0647;278.2119:260.2013:58.0656|58.0656:260.2014:215.1436|58.0656:121.065:147.0808|58.0656:121.065:147.0807|58.0656:121.065:91.0544;58.0653:278.212:260.2014|58.0652:121.0646:215.1431|58.0652:121.0646:91.0541,260.20125;215.1432;173.09515;159.0789;147.0806;132.056;121.0649;91.05435;58.0652,Athens_Univ;CASMI_2016;Eawag;Eawag_Additional_Specs;Env_Anal_Chem_U_Tuebingen,NA,NA,NA,NA,NA,NA
stpQQR167,"2,4-Toluene diisocyanate|2,4-diisocyanato-1-methylbenzene",CC1=C(C=C(C=C1)N=C=O)N=C=O,174.04293,C9H6N2O2,"InChI=1S/C9H6N2O2/c1-7-2-3-8(10-5-12)4-9(7)11-6-13/h2-4H,1H3",CAS_RN: 584-84-9,11443,DVKJHBMWWAPEIU-UHFFFAOYSA-N,13835351,DTXSID7026156,Positive,SM832302,[M+H]+,HCD35,175.0504:147.0554:132.0445,147.0554;132.0445,CASMI_2016,NA,NA,NA,NA,NA,NA
stpQQR168,4-Methylumbelliferyl sulfate|(4-methyl-2-oxochromen-7-yl) hydrogen sulfate,CC1=CC(=O)OC2=CC(OS(O)(=O)=O)=CC=C12,256.00416,C10H8O6S,"InChI=1S/C10H8O6S/c1-6-4-10(11)15-9-5-7(2-3-8(6)9)16-17(12,13)14/h2-5H,1H3,(H,12,13,14)",CAS_RN: 25892-63-1,84843,FUYLLJCBCKRIAL-UHFFFAOYSA-N,76536,DTXSID60864564,Negative,NA,NA,NA,NA,NA,NA,SM832451,[M-H]-,HCD35,175.04:254.9969:131.05,254.9969;175.04;131.05,CASMI_2016
stpQQR169,"Estrone-3-(beta-D-glucuronide)|Estrone glucuronide|(2S,3S,4S,5R,6S)-3,4,5-trihydroxy-6-[[(8R,9S,13S,14S)-13-methyl-17-oxo-7,8,9,11,12,14,15,16-octahydro-6H-cyclopenta[a]phenanthren-3-yl]oxy]oxane-2-carboxylic acid",C[C@]12CC[C@H]3[C@@H](CCC4=C3C=CC(O[C@@H]3O[C@@H]([C@@H](O)[C@H](O)[C@H]3O)C(O)=O)=C4)[C@@H]1CCC2=O,446.19407,C24H30O8,"InChI=1S/C24H30O8/c1-24-9-8-14-13-5-3-12(10-11(13)2-4-15(14)16(24)6-7-17(24)25)31-23-20(28)18(26)19(27)21(32-23)22(29)30/h3,5,10,14-16,18-21,23,26-28H,2,4,6-9H2,1H3,(H,29,30)/t14-,15-,16+,18+,19+,20-,21+,23-,24+/m1/s1",CAS_RN: 2479-90-5,115255,FJAZVHYPASAQKM-JBAURARKSA-N,103124,DTXSID20891497,Negative,NA,NA,NA,NA,NA,NA,SM832552,[M-H]-,HCD35,445.1867:269.1547:175.0248,445.1867;269.1547;175.0248,CASMI_2016
stpQQR170,"Estrone-3-sulfate|[6,7-3H] E1S|(13-methyl-17-oxo-7,8,9,11,12,14,15,16-octahydro-6H-cyclopenta[a]phenanthren-3-yl) hydrogen sulfate",CC12CCC3C(CCC4=CC(OS(O)(=O)=O)=CC=C34)C1CCC2=O,350.11879,C18H22O5S,"InChI=1S/C18H22O5S/c1-18-9-8-14-13-5-3-12(23-24(20,21)22)10-11(13)2-4-15(14)16(18)6-7-17(18)19/h3,5,10,14-16H,2,4,6-9H2,1H3,(H,20,21,22)",CAS_RN: NA,699,JKKFKPJIXZFSSB-UHFFFAOYSA-N,679,NA,Negative,NA,NA,NA,NA,NA,NA,SM832651,[M-H]-,HCD35,349.1113:269.1546:145.0657,349.1113;269.1546;145.0657,CASMI_2016