NORMAN_ID,NAME,SMILES,NEUTRAL_EXACT_MASS,FORMULA,StdInChI,CAS_RN,PUBCHEM_CID,InChIKey,CHEMSPIDER_ID,DTXSID,Preferable Ionization,MB_Records Positive Ionization,Adduct Positive Ionization,Ionisation type and collision energy Positive Ionization,Fragments Positive Ionization,Simplified_fragments_Positive,Institute Positive Ionization,MB_Records Negative Ionization,Adduct Negative Ionization,Ionisation type and collision energy Negative Ionization,Fragments Negative Ionization,Simplified_fragments_Negative,Institute Negative Ionization
stpQQR414,"Sulcotrione|2-(2-chloro-4-methylsulfonylbenzoyl)cyclohexane-1,3-dione",CS(=O)(=O)c1ccc(C(=O)C2C(=O)CCCC2=O)c(Cl)c1,328.01722,C14H13ClO5S,"InChI=1S/C14H13ClO5S/c1-21(19,20)8-5-6-9(10(15)7-8)14(18)13-11(16)3-2-4-12(13)17/h5-7,13H,2-4H2,1H3",CAS_RN: 6307-02-4,91760,PQTBTIFWAXVEPB-UHFFFAOYSA-N,82858,DTXSID9058230,Positive/Negative,SM865801;EA029001|EA029002|EA029003|EA029004|EA029005|EA029006|EA029007|EA029008|EA029009|EA029010|EA029011|EA029012|EA029013|EA029014;UF401301|UF401302|UF401303|UF401304,[M+H]+;[M+H]+;[M+H]+,HCD35;CID35|HCD15|HCD30|HCD45|HCD60|HCD75|HCD90|HCD15|HCD30|HCD45|HCD60|HCD75|HCD90|CID35;HCD55|HCD80|CID35|CID55,329.0245:157.0495:111.044;139.0391:293.0477:111.0441|329.0242:139.0389:157.0492|139.0391:329.0242:157.0495|139.039:111.0441:157.0494|111.0441:68.9971:139.039|68.9971:111.044:139.0389|68.9971:111.044:178.9896|329.0243:139.0389:157.0493|139.039:329.0242:157.0495|139.0389:111.044:157.0494|111.044:68.9971:139.0389|68.9971:111.044:139.0389|68.9971:111.044:149.9867|139.0389:293.0473:111.044;111.0439:139.0389:157.0496|111.044:214.0623:139.0388|139.0389:293.0478:111.044|139.0389:293.0479:111.044,293.04775;214.0623;178.9896;157.04945;149.9867;139.0389;111.044;68.9971,CASMI_2016;Eawag;UFZ,SM865851;EA029051|EA029052|EA029053|EA029054|EA029055|EA029056|EA029058|EA029059|EA029060|EA029061|EA029062|EA029063|EA029064;UF401351|UF401353|UF401354,[M-H]-;[M-H]-;[M-H]-,HCD35;CID35|HCD15|HCD30|HCD45|HCD60|HCD75|HCD15|HCD30|HCD45|HCD60|HCD75|HCD90|CID35;HCD55|CID35|CID55,291.0334:212.0479:215.0351;291.0331:212.0474|291.0333:327.0094|291.0331|291.0337:249.0231:215.0347|215.0351:249.0225:212.0483|215.0347|291.0329:327.0092|291.0328|291.0328:249.0227:215.0344|215.0348:249.0225:212.0481|215.0339|215.0349|291.0328;197.9555|291.033|197.9551:291.0339,327.0093;291.0331;249.0226;215.03475;212.048;197.9553,CASMI_2016;Eawag;UFZ
stpQQR415,4-Aminobenzamide,NC(=O)c1ccc(N)cc1,136.06366,C7H8N2O,"InChI=1S/C7H8N2O/c8-6-3-1-5(2-4-6)7(9)10/h1-4H,8H2,(H2,9,10)",CAS_RN: 2835-68-9,76079,QIKYZXDTTPVVAC-UHFFFAOYSA-N,68568,DTXSID7038814,Positive,SM865901;UF413601|UF413602|UF413603|UF413604,[M+H]+;[M+H]+,HCD35;HCD55|HCD80|CID35|CID55,120.0444:137.0709:94.0651;120.0449:94.0655:137.0716|120.0449:92.0498:94.0655|120.0448:137.0715:94.0655|120.0448:94.0655,120.0448;94.0655;92.0498,CASMI_2016;UFZ,NA,NA,NA,NA,NA,NA
stpQQR416,"4-Aminoantipyrine|4-amino-1,5-dimethyl-2-phenylpyrazol-3-one",CN1N(C(=O)C(N)=C1C)c1ccccc1,203.10586,C11H13N3O,"InChI=1S/C11H13N3O/c1-8-10(12)11(15)14(13(8)2)9-6-4-3-5-7-9/h3-7H,12H2,1-2H3",CAS_RN: 83-07-8,2151,RLFWWDJHLFCNIJ-UHFFFAOYSA-N,2066,DTXSID8048860,Positive,SM866001;EA084501|EA084502|EA084503|EA084504|EA084505|EA084506|EA084507|EA084508|EA084509|EA084510|EA084511|EA084512|EA084513|EA084514;UF408301|UF408302|UF408303|UF408304,[M+H]+;[M+H]+;[M+H]+,HCD35;CID35|HCD15|HCD30|HCD45|HCD60|HCD75|HCD90|HCD15|HCD30|HCD45|HCD60|HCD75|HCD90|CID35;HCD55|HCD80|CID35|CID55,56.0497:204.1133:159.0917;187.087:159.0919:173.0712|204.1134:187.0866:159.0916|204.1135:56.0495:187.0867|56.0495:204.1133:94.0651|56.0495:94.0652:83.0605|56.0495:94.0652:83.0604|56.0495:94.0652:83.0604|204.1133:187.0866:159.0918|204.1134:56.0495:187.0867|56.0495:94.0651:204.113|56.0495:94.0651:83.0604|56.0495:94.0652:83.0604|56.0495:94.0652:83.0604|187.0867:159.0918:173.0711;94.0652:159.0918:83.0604|94.0651:83.0605:104.0494|187.0866:159.0917:173.0711|187.0866:159.0917:173.071,187.08665;173.0711;159.09175;104.0494;94.0652;83.0604;56.0495,CASMI_2016;Eawag;UFZ,NA,NA,NA,NA,NA,NA
stpQQR417,"Diatrizoate|Diatrizoic acid|3,5-diacetamido-2,4,6-triiodobenzoic acid",CC(=O)Nc1c(I)c(NC(C)=O)c(I)c(C(O)=O)c1I,613.7697,C11H9I3N2O4,"InChI=1S/C11H9I3N2O4/c1-3(17)15-9-6(12)5(11(19)20)7(13)10(8(9)14)16-4(2)18/h1-2H3,(H,15,17)(H,16,18)(H,19,20)",CAS_RN: 737-31-5,2140,YVPYQUNUQOZFHG-UHFFFAOYSA-N,2055,DTXSID0044521,Positive/Negative,EA023901|EA023902|EA023903|EA023904|EA023905|EA023906|EA023907|EA023908|EA023909|EA023910|EA023911|EA023912|EA023913|EA023914,[M+H]+,CID35|HCD15|HCD30|HCD45|HCD60|HCD75|HCD90|HCD15|HCD30|HCD45|HCD60|HCD75|HCD90|CID35,360.9678:487.8723:233.0556|360.9677:293.9003|360.9678:233.0556:192.053|233.0555:192.0529:360.9682|233.0556:148.0392:192.0528|148.0392:233.0553:192.0527|148.0392:146.0474:180.0523|360.9678:325.9538:233.0555|360.9677:233.0554:192.0527|233.0554:192.0527:360.9677|233.0554:148.0391:192.0527|148.0392:233.0554:192.0527|148.0392:192.0529:118.0525|360.9677:487.8718:233.0554,487.87205;360.96775;325.9538;293.9003;233.0554;192.0527;180.0523;148.0392;146.0474;118.0525,Eawag,SM866451,[M-H]-,HCD35,112.0279,112.0279,CASMI_2016
stpQQR418,Caffeine,CN1c2ncn(C)c2C(=O)N(C)C1=O,194.08038,C8H10N4O2,"InChI=1S/C8H10N4O2/c1-10-4-9-6-5(10)7(13)12(3)8(14)11(6)2/h4H,1-3H3",CAS_RN: 58-08-2,2519,RYYVLZVUVIJVGH-UHFFFAOYSA-N,2424,DTXSID0020232,Positive,SM866601;EA030301|EA030302|EA030303|EA030304|EA030305|EA030306|EA030307|EA030308|EA030309|EA030310|EA030311|EA030312|EA030313|EA030314;UF408901|UF408902|UF408903|UF408904;UA005001|UA005003,[M+H]+;[M+H]+;[M+H]+;[M+H]+,HCD35;CID35|HCD15|HCD30|HCD45|HCD60|HCD75|HCD90|HCD15|HCD30|HCD45|HCD60|HCD75|HCD90|CID35;HCD55|HCD80|CID35|CID55;CID35|CID35,195.0876:138.0661:110.0712;138.0662:195.0877:110.0713|195.0878:138.0665|195.0879:138.0662|195.0878:138.0662:110.0714|138.0662:195.0877:110.0712|138.0661:110.0712:195.0871|138.066:110.0712:123.0426|195.0876|195.0877:138.0661|195.0877:138.0662:110.0712|138.0662:195.0876:110.0712|138.0662:110.0713:195.0878|138.0661:110.0712:123.0426|138.0661:195.0874:110.0711;138.0663:195.0878:110.0714|138.0663:110.0713:83.0605|138.0664:195.088:110.0714|138.0663:110.0714:177.0165;138.0662:195.0877:110.0713|138.0661:195.0876:151.0978,177.0165;151.0978;138.0662;123.0426;110.07125;83.0605,CASMI_2016;Eawag;UFZ;UFZ_Additional_Specs,NA,NA,NA,NA,NA,NA
stpQQR419,Acetaminophen|N-(4-hydroxyphenyl)acetamide,CC(=O)Nc1ccc(O)cc1,151.06333,C8H9NO2,"InChI=1S/C8H9NO2/c1-6(10)9-7-2-4-8(11)5-3-7/h2-5,11H,1H3,(H,9,10)",CAS_RN: 103-90-2,1983,RZVAJINKPMORJF-UHFFFAOYSA-N,1906,DTXSID2020006,Positive/Negative,AU112601;SM805001;SM866701;EA024301|EA024302|EA024303|EA024304|EA024305|EA024306|EA024307|EA024308|EA024309|EA024310|EA024311|EA024312|EA024313|EA024314;UF409101|UF409102|UF409103|UF409104,[M+H]+;[M+H]+;[M+H]+;[M+H]+;[M+H]+,CID16.3-24.4;HCD35;HCD35;CID35|HCD15|HCD30|HCD45|HCD60|HCD75|HCD90|HCD15|HCD30|HCD45|HCD60|HCD75|HCD90|CID35;HCD55|HCD80|CID35|CID55,152.0716:110.0622:65.0389;152.0706:110.06:93.0335;152.0705:110.06:93.0335;152.0707:110.0601:134.0601|152.0708:110.06|152.0707:110.0601:134.0603|152.0707:110.0601:134.0602|110.0601:152.0706:92.0495|110.0601:65.0386:93.0335|110.0601:65.0386:93.0335|152.0707:110.06|152.0706:110.0601:65.0384|152.0706:110.0601:134.06|110.0601:152.0706:65.0386|110.0601:65.0386:93.0335|110.06:65.0386:92.0495|152.0706:110.06:134.06;110.06:152.0707:92.0495|110.06:92.0495:93.0336|110.0601:134.0602:152.0709|110.06:134.0602:111.0443,134.0602;111.0443;110.0601;93.0335;92.0495;65.0386,Athens_Univ;CASMI_2016;CASMI_2016;Eawag;UFZ,EA024351|EA024352|EA024353|EA024354|EA024355|EA024356|EA024357|EA024358|EA024359|EA024360|EA024361|EA024362|EA024364,[M-H]-,CID35|HCD15|HCD30|HCD45|HCD60|HCD75|HCD90|HCD15|HCD30|HCD45|HCD60|HCD75|CID35,150.0562:107.0376|150.056|150.0563|150.0561:107.0375|107.0377:150.0561|107.0376|107.0375|150.0561|150.056|150.0559:107.0374|107.0375:150.056|107.0374|150.056:107.0375,150.05605;107.0375,Eawag
stpQQR420,"Saccharin|1,1-dioxo-1,2-benzothiazol-3-one",O=C1NS(=O)(=O)c2ccccc12,182.999,C7H5NO3S,"InChI=1S/C7H5NO3S/c9-7-5-3-1-2-4-6(5)12(10,11)8-7/h1-4H,(H,8,9)",CAS_RN: 88-19-7,5143,CVHZOJJKTDOEJC-UHFFFAOYSA-N,4959,DTXSID5021251,Negative,NA,NA,NA,NA,NA,NA,SM867051;EA281651|EA281652|EA281653|EA281654|EA281655|EA281656|EA281657|EA281658|EA281659|EA281660|EA281661|EA281662|EA281663|EA281664,[M-H]-;[M-H]-,HCD35;CID35|HCD15|HCD30|HCD45|HCD60|HCD75|HCD90|HCD15|HCD30|HCD45|HCD60|HCD75|HCD90|CID35,181.9918;181.9918:105.9602:61.9707|181.9918|181.9919|181.9918:61.9707|181.9917:61.9707|181.9917|181.9911|181.9918|181.9918|181.9918:61.9704|181.9917:61.9706|181.9916|181.9915:61.9704|181.9918:105.9602:61.9708,181.9918;105.9602;61.9707,CASMI_2016;Eawag
stpQQR421,Cyclamate|Cyclamic acid|cyclohexylsulfamic acid,OS(=O)(=O)NC1CCCCC1,179.0616,C6H13NO3S,"InChI=1S/C6H13NO3S/c8-11(9,10)7-6-4-2-1-3-5-6/h6-7H,1-5H2,(H,8,9,10)",CAS_RN: 139-05-9,7533,HCAJEUSONLESMK-UHFFFAOYSA-N,7252,DTXSID5041809,Positive/Negative,EA281301|EA281302|EA281303|EA281304|EA281305|EA281308|EA281309|EA281310|EA281314,[M+H]+,CID35|HCD15|HCD30|HCD45|HCD60|HCD15|HCD30|HCD45|CID35,83.0854:55.0542:107.07|83.0855:55.0541:107.0701|83.0856:55.0541:89.0595|83.0855:55.0541|83.0854:55.0543|83.0855:107.0702:55.054|83.0855:55.0542|83.0855:55.0542|83.0855:107.0702:89.0596,107.07015;89.05955;83.0855;55.05415,Eawag,SM867151;EA281351|EA281352|EA281353|EA281354|EA281355|EA281356|EA281357|EA281358|EA281359|EA281360|EA281361|EA281362|EA281363|EA281364,[M-H]-;[M-H]-,HCD35;CID35|HCD15|HCD30|HCD45|HCD60|HCD75|HCD90|HCD15|HCD30|HCD45|HCD60|HCD75|HCD90|CID35,178.0543;178.0546:79.9575:80.9652|178.0544|178.0544|178.0544:79.9573|178.0544:79.9574:80.9651|79.9574:178.0543:80.9652|79.9574:178.0542:80.9654|178.0545|178.0545:79.9573|178.0545:79.9573|178.0544:79.9574:80.9651|79.9574:178.0543:80.9651|79.9574:178.0542:80.965|178.0544:79.9574:80.9652,178.0544;80.96515;79.9574,CASMI_2016;Eawag
stpQQR422,"2,7-Naphthalenedisulfonic acid|Naphthalene-2,7-disulfonic acid",OS(=O)(=O)c1ccc2ccc(cc2c1)S(O)(=O)=O,287.9762,C10H8O6S2,"InChI=1S/C10H8O6S2/c11-17(12,13)9-3-1-7-2-4-10(18(14,15)16)6-8(7)5-9/h1-6H,(H,11,12,13)(H,14,15,16)",CAS_RN: 97-36-9,66707,VILFVXYKHXVYAB-UHFFFAOYSA-N,60073,DTXSID3059054,Negative,NA,NA,NA,NA,NA,NA,SM867751;EA065451|EA065461,[M-H]-;[M-H]-,HCD35;CID35|HCD60,286.969:207.0122:143.0503;207.012|207.0118,286.969;207.012;143.0503,CASMI_2016;Eawag
stpQQR423,Metformin,CN(C)C(=N)N=C(N)N,129.10145,C4H11N5,"InChI=1S/C4H11N5/c1-9(2)4(7)8-3(5)6/h1-2H3,(H5,5,6,7,8)",CAS_RN: 657-24-9,4091,XZWYZXLIPXDOLR-UHFFFAOYSA-N,3949,DTXSID2023270,Positive,AU112701|AU112702|AU112703;SM867803;EA255001|EA255002|EA255003|EA255004|EA255005|EA255006|EA255007|EA255008|EA255009|EA255010|EA255011|EA255012|EA255013|EA255014;TUE00511|TUE00512|TUE00513;UF412401|UF412402|UF412403|UF412404,[M+H]+;[M+H]+;[M+H]+;[M+H]+;[M+H]+,CID15.5-23.2|CID20|CID10;HCD35;CID35|HCD15|HCD30|HCD45|HCD60|HCD75|HCD90|HCD15|HCD30|HCD45|HCD60|HCD75|HCD90|CID35;NA10.0V|NA20.0V|NA40.0V;HCD55|HCD80|CID35|CID55,71.0606:60.0556:130.1092|130.1082:113.083|130.1079:113.0818;60.0558:130.1087:71.0604;130.1088:60.0556:85.0509|130.1089:60.0557:85.0511|130.1088:60.0557:85.0509|130.1088:60.0557:71.0604|60.0557:71.0604:130.1088|71.0604:60.0556:85.0509|71.0604:60.0556:85.0509|130.1088:60.0556:85.0508|130.1088:60.0557:85.0509|130.1088:60.0557:71.0604|60.0556:130.1088:71.0604|71.0604:60.0557:85.0509|71.0604:60.0557:85.0509|130.1088:60.0557:85.051;60.0557:130.1087:71.0605|71.0604:60.0558:46.0648|71.0605:43.0287:68.0243;130.1092:71.0606:88.0873|71.0606:88.0873:85.0512|60.0557:85.0513:113.0826|60.0557:85.0512:113.0826,113.0826;88.0873;85.0509;71.0604;68.0243;60.0557;46.0648;43.0287,Athens_Univ;CASMI_2016;Eawag;Env_Anal_Chem_U_Tuebingen;UFZ,NA,NA,NA,NA,NA,NA
stpQQR424,Triglyme|1-methoxy-2-[2-(2-methoxyethoxy)ethoxy]ethane,COCCOCCOCCOC,178.12051,C8H18O4,"InChI=1S/C8H18O4/c1-9-3-5-11-7-8-12-6-4-10-2/h3-8H2,1-2H3",CAS_RN: 112-49-2,8189,YFNKIDBQEZZDLK-UHFFFAOYSA-N,13835222,DTXSID8026224,Positive,SM867901,[M+H]+,HCD35,59.0493:103.0754:89.0597,103.0754;89.0597;59.0493,CASMI_2016,NA,NA,NA,NA,NA,NA
stpQQR425,Creatinine|2-Amino-3-methyl-4H-imidazol-5-one,CN1CC(=O)N=C1N,113.0589,C4H7N3O,"InChI=1S/C4H7N3O/c1-7-2-3(8)6-4(7)5/h2H2,1H3,(H2,5,6,8)",CAS_RN: 60-27-5,588,DDRJAANPRJIHGJ-UHFFFAOYSA-N,568,DTXSID8045987,Positive,SM868004;UF412501|UF412502|UF412503|UF412504,[M+H]+;[M+H]+,HCD35;HCD55|HCD80|CID35|CID55,114.0662:86.0713:58.0653;98.0716|98.0716|58.0652:57.0334|58.0652:57.0335:98.0717,98.0716;86.0713;58.0652;57.03345,CASMI_2016;UFZ,NA,NA,NA,NA,NA,NA
stpQQR426,"4-Hydroxybenzotriazole|1,2-dihydrobenzotriazol-4-one",O=C1C=CC=C2NNN=C12,135.04326,C6H5N3O,"InChI=1S/C6H5N3O/c10-5-3-1-2-4-6(5)8-9-7-4/h1-3,7,9H",CAS_RN: NA,2759291,NPZTUJOABDZTLV-UHFFFAOYSA-N,2040044,DTXSID90374722,Positive,AU223601|AU223602;SM868101,[M+H]+;[M+H]+,CID10|CID20;HCD35,136.0499:137.0526:121.0392|136.0497:137.0526:121.0408;136.0505:80.0495:108.0444,121.04;108.0444;80.0495,Athens_Univ;CASMI_2016,NA,NA,NA,NA,NA,NA
stpQQR427,Metolachlor OA|2-[2-ethyl-N-(1-methoxypropan-2-yl)-6-methylanilino]-2-oxoacetic acid,CCC1=CC=CC(C)=C1N(C(C)COC)C(=O)C(O)=O,279.14706,C15H21NO4,"InChI=1S/C15H21NO4/c1-5-12-8-6-7-10(2)13(12)16(11(3)9-20-4)14(17)15(18)19/h6-8,11H,5,9H2,1-4H3,(H,18,19)",CAS_RN: 152019-73-3,15842092,LNOOSYCKMKZOJB-UHFFFAOYSA-N,21170688,DTXSID6037568,Positive/Negative,AU205801|AU205802|AU205803|AU205804|AU205805;SM868501;EA026501|EA026502|EA026503|EA026504|EA026505|EA026506|EA026507|EA026508|EA026509|EA026510|EA026511|EA026512|EA026513|EA026514,[M+H]+;[M+H]+;[M+H]+,CID10|CID20|CID30|CID40|CID50;HCD35;CID35|HCD15|HCD30|HCD45|HCD60|HCD75|HCD90|HCD15|HCD30|HCD45|HCD60|HCD75|HCD90|CID35,248.1279:280.1541:249.131|248.1279:249.131:146.095|248.1276:146.096:148.1115|131.0719:146.0949:144.0792|130.064:131.0717:144.0801;248.1282:146.0964:73.0649;248.128:234.149:208.0974|248.128:280.1543:234.1489|248.1279:73.0648:162.0913|248.1279:146.0964:148.1121|146.0964:148.112:248.1279|131.0729:146.0964:144.0808|131.073:91.0542:144.0808|248.128:280.1543:234.1487|248.1279:73.0648:162.0913|248.1279:146.0964:148.112|146.0964:148.112:248.128|131.0729:146.0964:144.0807|131.0729:91.0541:144.0807|248.1279:234.1488:208.097,249.131;248.1279;234.14885;208.0972;162.0913;148.112;146.0964;144.0807;131.0729;130.064;91.05415;73.0648,Athens_Univ;CASMI_2016;Eawag,SM868551;EA026551|EA026552|EA026553|EA026554|EA026555|EA026556|EA026557|EA026558|EA026559|EA026560|EA026561|EA026562|EA026563|EA026564;UF405351|UF405352|UF405353|UF405354,[M-H]-;[M-H]-;[M-H]-,HCD35;CID35|HCD15|HCD30|HCD45|HCD60|HCD75|HCD90|HCD15|HCD30|HCD45|HCD60|HCD75|HCD90|CID35;HCD55|HCD80|CID35|CID55,206.1551:158.0976:174.1289;206.1556:174.129|206.1555:278.1402:174.1291|206.1555:174.1291:158.0979|158.0979:174.129:206.1551|158.0981:144.0824:160.1134|144.0821:158.098:143.0746|144.0822:158.0983:143.0744|206.1554:278.1399:174.129|206.1555:174.1291:158.0979|158.0978:174.1292:206.1553|158.0977:144.0819:160.1134|144.0819:158.0977:143.0744|144.0819:158.0978:143.0743|206.1556:174.129;206.1552:199.1319:174.1286|206.155:199.1327:174.1288|206.1551|206.155:199.1325,278.14005;206.1553;199.1325;174.129;160.1134;158.0979;144.082;143.0744,CASMI_2016;Eawag;UFZ
stpQQR428,Metolachlor ESA|2-[2-ethyl-N-(1-methoxypropan-2-yl)-6-methylanilino]-2-oxoethanesulfonic acid,CCC1=CC=CC(C)=C1N(C(C)COC)C(=O)CS(O)(=O)=O,329.12969,C15H23NO5S,"InChI=1S/C15H23NO5S/c1-5-13-8-6-7-11(2)15(13)16(12(3)9-21-4)14(17)10-22(18,19)20/h6-8,12H,5,9-10H2,1-4H3,(H,18,19,20)",CAS_RN: 171118-09-5,6426849,CIGKZVUEZXGYSV-UHFFFAOYSA-N,4932269,DTXSID1037567,Positive/Negative,AU206001|AU206002|AU206003|AU206004|AU206005;SM868601;EA050201|EA050202|EA050203|EA050204|EA050205|EA050206|EA050207|EA050208|EA050209|EA050210|EA050211|EA050212|EA050213|EA050214,[M+H]+;[M+H]+;[M+H]+,CID10|CID20|CID30|CID40|CID50;HCD35;CID35|HCD15|HCD30|HCD45|HCD60|HCD75|HCD90|HCD15|HCD30|HCD45|HCD60|HCD75|HCD90|CID35,330.1367:298.11:299.1141|298.1108:300.1098:202.1223|298.1102:202.1213:160.111|202.1215:160.111:176.1421|160.1106:174.1267:202.1217;298.111:202.1227:330.1372;298.1108|298.1104:330.1367|298.1105:202.1234:73.0649|298.1106:202.1224:160.112|202.1225:160.112:174.1276|160.1119:202.1225:174.1276|160.112:145.0885:174.1279|298.1105:330.1367|298.1106:202.1227:73.0648|298.1105:202.1225:160.1121|202.1225:160.112:174.1275|160.112:202.1226:174.1277|160.112:145.0885:174.1276|298.1107,300.1098;299.1141;298.11055;202.1225;176.1421;174.1276;160.112;145.0885;73.06485,Athens_Univ;CASMI_2016;Eawag,SM868651;EA050251|EA050252|EA050253|EA050254|EA050255|EA050256|EA050257|EA050258|EA050259|EA050260|EA050261|EA050262|EA050263|EA050264;UF405451|UF405452|UF405453|UF405454,[M-H]-;[M-H]-;[M-H]-,HCD35;CID35|HCD15|HCD30|HCD45|HCD60|HCD75|HCD90|HCD15|HCD30|HCD45|HCD60|HCD75|HCD90|CID35;HCD55|HCD80|CID35|CID55,328.1225:120.9595:135.0815;120.9603:192.034:296.0964|328.123|328.1228:120.9603:79.9575|79.9575:120.9603:328.1226|79.9574:120.9603:135.0816|79.9575:76.9704:135.0818|79.9575:76.9702:118.968|328.1228|328.1229:120.9604:79.9574|79.9574:328.1225:120.9602|79.9575:120.9604:76.9704|79.9575:135.0817:76.9703|79.9574:93.9733:135.0812|120.9603:192.0338:296.0964;328.122|328.1221:120.9601:192.0339|120.9601:192.0336:296.0962|120.9601:192.0336:296.096,328.1226;296.0963;192.0338;135.0816;120.9603;118.968;93.9733;79.9575;76.97035,CASMI_2016;Eawag;UFZ
stpQQR429,N-Nitrosomorpholine|4-nitrosomorpholine,O=NN1CCOCC1,116.05858,C4H8N2O2,InChI=1S/C4H8N2O2/c7-5-6-1-3-8-4-2-6/h1-4H2,CAS_RN: 59-89-2,6046,ZKXDGKXYMTYWTB-UHFFFAOYSA-N,5823,DTXSID4021056,Positive,SM868901;EQ345401|EQ345402|EQ345403|EQ345404|EQ345405|EQ345406;UF412701|UF412702|UF412703|UF412704,[M+H]+;[M+H]+;[M+H]+,HCD35;HCD15|HCD30|HCD45|HCD60|HCD75|HCD90;HCD55|HCD80|CID35|CID55,117.0658:87.0678:59.0493;117.0658:87.0679:86.06|117.0658:87.0679:86.06|117.0658:87.0679:86.06|117.0659:86.0601:87.0679|86.06:117.0659:87.0679|86.06:57.0573:117.0659;117.0664:86.0604:87.0683|117.0663:86.0605:87.0682|87.0682:86.0604:57.0574|87.0682:86.0604:57.0574,87.0679;86.06005;59.0493;57.0574,CASMI_2016;Eawag;UFZ,NA,NA,NA,NA,NA,NA
stpQQR430,Cotinine|S-(-)-Cotinine|1-methyl-5-pyridin-3-ylpyrrolidin-2-one,CN1C(CCC1=O)c1cccnc1,176.09496,C10H12N2O,"InChI=1S/C10H12N2O/c1-12-9(4-5-10(12)13)8-3-2-6-11-7-8/h2-3,6-7,9H,4-5H2,1H3",CAS_RN: 486-56-6,408,UIKROCXWUNQSPJ-UHFFFAOYSA-N,395,DTXSID6047577,Positive,SM818403,[M+H]+,HCD35,177.1023:80.0495:98.0601,98.0601;80.0495,CASMI_2016,NA,NA,NA,NA,NA,NA
stpQQR431,Benzenesulfonic acid,OS(=O)(=O)C1=CC=CC=C1,158.0038,C6H6O3S,"InChI=1S/C6H6O3S/c7-10(8,9)6-4-2-1-3-5-6/h1-5H,(H,7,8,9)",CAS_RN: 98-11-3,7371,SRSXLGNVWSONIS-UHFFFAOYSA-N,7093,DTXSID9024568,Negative,NA,NA,NA,NA,NA,NA,SM869553,[M-H]-,HCD35,156.9965,156.9965,CASMI_2016
stpQQR432,N-Methyl-2-pyrrolidone|1-Methyl-2-Pyrrolidinone|1-Methylpyrrolidin-2-one,CN1CCCC1=O,99.06841,C5H9NO,"InChI=1S/C5H9NO/c1-6-4-2-3-5(6)7/h2-4H2,1H3",CAS_RN: 872-50-4,13387,SECXISVLQFMRJM-UHFFFAOYSA-N,12814,DTXSID6020856,Positive,SM869701,[M+H]+,HCD35,100.0755:58.0288:69.0335,69.0335;58.0288,CASMI_2016,NA,NA,NA,NA,NA,NA
stpQQR433,"Melamine|1,3,5-triazine-2,4,6-triamine",Nc1nc(N)nc(N)n1,126.06539,C3H6N6,"InChI=1S/C3H6N6/c4-1-7-2(5)9-3(6)8-1/h(H6,4,5,6,7,8,9)",CAS_RN: 108-78-1,7955,JDSHMPZPIAZGSV-UHFFFAOYSA-N,7667,DTXSID6020802,Positive,AU387001|AU387002;SM869903;EQ315101|EQ315102|EQ315103|EQ315104|EQ315105|EQ315106;TUE00491|TUE00492|TUE00493,[M+H]+;[M+H]+;[M+H]+;[M+H]+,CID10|CID20;HCD35;HCD15|HCD30|HCD45|HCD60|HCD75|HCD90;NA10.0V|NA20.0V|NA40.0V,127.0727|127.0724;127.0726:85.0509:60.0558;127.0727:85.0509:60.0557|127.0727:85.0508:68.0243|127.0727:85.0509:60.0557|127.0727:85.0509:68.0243|85.0509:127.0727:68.0243|85.0509:127.0726:68.0243;127.0727:85.0509:68.0243|85.051:127.0725:43.0287|68.0244:43.0287:85.051,85.0509;68.0243;60.0557;43.0287,Athens_Univ;CASMI_2016;Eawag;Env_Anal_Chem_U_Tuebingen,NA,NA,NA,NA,NA,NA