NORMAN_ID,NAME,SMILES,NEUTRAL_EXACT_MASS,FORMULA,StdInChI,CAS_RN,PUBCHEM_CID,InChIKey,CHEMSPIDER_ID,DTXSID,Preferable Ionization,MB_Records Positive Ionization,Adduct Positive Ionization,Ionisation type and collision energy Positive Ionization,Fragments Positive Ionization,Simplified_fragments_Positive,Institute Positive Ionization,MB_Records Negative Ionization,Adduct Negative Ionization,Ionisation type and collision energy Negative Ionization,Fragments Negative Ionization,Simplified_fragments_Negative,Institute Negative Ionization
stpQQR671,"KET|ketoconazole|1-[4-[4-[[(2R,4S)-2-(2,4-dichlorophenyl)-2-(imidazol-1-ylmethyl)-1,3-dioxolan-4-yl]methoxy]phenyl]piperazin-1-yl]ethanone",[H][C@]1(COC2=CC=C(C=C2)N2CCN(CC2)C(C)=O)CO[C@@](CN2C=CN=C2)(O1)C1=CC=C(Cl)C=C1Cl,530.1488,C26H28Cl2N4O4,"InChI=1S/C26H28Cl2N4O4/c1-19(33)31-10-12-32(13-11-31)21-3-5-22(6-4-21)34-15-23-16-35-26(36-23,17-30-9-8-29-18-30)24-7-2-20(27)14-25(24)28/h2-9,14,18,23H,10-13,15-17H2,1H3/t23-,26-/m0/s1",CAS_RN: 65277-42-1,NA,XMAYWYJOQHXEEK-OZXSUGGESA-N,401695,DTXSID7029879,Positive,EQ326201|EQ326202|EQ326203|EQ326204|EQ326205|EQ326206|EQ326207|EQ326208|EQ326209;ET260001|ET260002|ET260003|ET260004;UF410001|UF410002|UF410003|UF410004,[M+H]+;[M+H]+;[M+H]+,HCD15|HCD30|HCD45|HCD60|HCD75|HCD90|HCD120|HCD150|HCD180;HCD20|HCD30|HCD40|HCD60;HCD55|HCD80|CID35|CID55,531.1559|531.1561:489.1458:244.0053|82.0525:255.0086:177.1022|82.0525:81.0447:112.0757|82.0525:81.0447:158.9763|81.0447:82.0525:120.0444|81.0447:82.0525:122.9996|81.0447:54.0338:65.0386|81.0447:54.0339:89.0386;531.1558:489.1454:82.0526|531.1558:489.1452:82.0525|531.1558:82.0525:489.1452|82.0525:81.0447:112.0756;82.0526:177.1025:112.0758|82.0526:158.9765:81.0448|489.1458:255.0092:244.0058|489.1455:255.0091:244.0057,489.14545;255.0091;244.0057;177.10235;158.9764;122.9996;120.0444;112.0757;89.0386;82.0525;81.0447;65.0386;54.03385,Eawag;Eawag_Additional_Specs;UFZ,NA,NA,NA,NA,NA,NA
stpQQR672,KET_M565,[H][C@]1(COC2=CC=C(C=C2)N2CCN(CC2)C(C)=O)CO[C@@](CNC(=O)CNC=O)(O1)C1=CC=C(Cl)C=C1Cl,564.1542,C26H30Cl2N4O6,"InChI=1S/C26H30Cl2N4O6/c1-18(34)31-8-10-32(11-9-31)20-3-5-21(6-4-20)36-14-22-15-37-26(38-22,16-30-25(35)13-29-17-33)23-7-2-19(27)12-24(23)28/h2-7,12,17,22H,8-11,13-16H2,1H3,(H,29,33)(H,30,35)/t22-,26-/m0/s1",CAS_RN: NA,NA,XRVDJJPAVOFCOR-NVQXNPDNSA-N,NA,DTXSID10891709,Positive,ET260101|ET260102|ET260103|ET260104,[M+H]+,HCD20|HCD30|HCD40|HCD60,565.1613:277.1541:219.1126|219.1128:247.144:277.1546|219.1127:112.0757:203.9976|112.0756:151.0183:120.0808,277.15435;247.144;219.1127;203.9976;151.0183;120.0808;112.07565,Eawag_Additional_Specs,NA,NA,NA,NA,NA,NA
stpQQR673,CBDZ-M|Lobendazole|ethyl N-(1H-benzimidazol-2-yl)carbamate,O=C(NC1=NC2=CC=CC=C2N1)OCC,205.0851,C10H11N3O2,"InChI=1S/C10H11N3O2/c1-2-15-10(14)13-9-11-7-5-3-4-6-8(7)12-9/h3-6H,2H2,1H3,(H2,11,12,13,14)",CAS_RN: 6306-71-4,22752,OKOVSTKGUBOSTB-UHFFFAOYSA-N,21329,DTXSID70212390,Positive,ET270101|ET270102|ET270103|ET270104|ET270105|ET270106|ET270107|ET270108|ET270109,[M+H]+,HCD15|HCD30|HCD45|HCD60|HCD75|HCD90|HCD120|HCD150|HCD180,206.0925:178.0611:160.0505|178.0612:206.0926:160.0506|160.0506:134.0713:178.0611|134.0712:160.0506:178.0611|134.0712:160.0506:92.0494|134.0713:160.0506:92.0495|92.0495:65.0386:134.0713|65.0386:92.0495:105.0447|65.0386:80.0495:105.0447,178.0611;160.0506;134.0713;105.0447;92.0495;80.0495;65.0386,Eawag_Additional_Specs,NA,NA,NA,NA,NA,NA
stpQQR674,MPL-dm|O-Demethylmetoprolol|1-[4-(2-hydroxyethyl)phenoxy]-3-(propan-2-ylamino)propan-2-ol,CC(NCC(O)COC1=CC=C(CCO)C=C1)C,253.1678,C14H23NO3,"InChI=1S/C14H23NO3/c1-11(2)15-9-13(17)10-18-14-5-3-12(4-6-14)7-8-16/h3-6,11,13,15-17H,7-10H2,1-2H3",CAS_RN: 6712-97-6,162181,CUKXSBOAIJILRY-UHFFFAOYSA-N,142425,NA,Positive,ET280101|ET280102|ET280103|ET280104|ET280105|ET280106|ET280107|ET280108|ET280109,[M+H]+,HCD15|HCD30|HCD45|HCD60|HCD75|HCD90|HCD120|HCD150|HCD180,254.1751:177.091:116.1069|254.1751:177.0909:116.107|177.0909:72.0806:116.107|72.0807:133.0648:74.0599|91.0542:105.0699:56.0495|91.0542:95.0491:103.0543|95.0491:91.0542:105.0447|95.0491:91.0543:77.0384|95.0492:65.0385:77.0384,177.0909;133.0648;116.107;105.0699;105.0447;103.0543;95.0491;91.0542;77.0384;74.0599;72.08065;65.0385;56.0495,Eawag_Additional_Specs,NA,NA,NA,NA,NA,NA
stpQQR675,BEZ-da|41859-57-8|4-chloro-N-[2-(4-hydroxyphenyl)ethyl]benzamide,OC1=CC=C(CCNC(C2=CC=C(Cl)C=C2)=O)C=C1,275.0713,C15H14ClNO2,"InChI=1S/C15H14ClNO2/c16-13-5-3-12(4-6-13)15(19)17-10-9-11-1-7-14(18)8-2-11/h1-8,18H,9-10H2,(H,17,19)",CAS_RN: 41859-57-8,198234,ZTLWJYCDAXUIBK-UHFFFAOYSA-N,171576,DTXSID80194653,Positive,ET290101|ET290102|ET290103|ET290104|ET290105|ET290106|ET290107|ET290108|ET290109,[M+H]+,HCD15|HCD30|HCD45|HCD60|HCD75|HCD90|HCD120|HCD150|HCD180,276.0785:138.9945:121.0648|138.9946:121.0648:155.1068|138.9946:121.0648:88.0757|138.9947:121.0648:93.0699|138.9946:103.0542:121.0648|139.0059:103.0542:91.0542|95.0492:91.0542:75.0229|75.0229:95.0492:51.0229|51.0229:75.0229:74.0151,155.1068;139.0059;138.9946;121.0648;103.0542;95.0492;93.0699;91.0542;88.0757;75.0229;74.0151;51.0229,Eawag_Additional_Specs,NA,NA,NA,NA,NA,NA
stpQQR676,BEZ-M,CC(C(OC)=O)(OC1=CC=C(CCNC(C2=CC=C(Cl)C=C2)=O)C=C1)C,375.1237,C20H22ClNO4,"InChI=1S/C20H22ClNO4/c1-20(2,19(24)25-3)26-17-10-4-14(5-11-17)12-13-22-18(23)15-6-8-16(21)9-7-15/h4-11H,12-13H2,1-3H3,(H,22,23)",CAS_RN: NA,NA,KDYYGGKDZBRIIX-UHFFFAOYSA-N,27524758,NA,Positive,ET290201|ET290202|ET290203|ET290204|ET290205|ET290206|ET290207|ET290208|ET290209,[M+H]+,HCD15|HCD30|HCD45|HCD60|HCD75|HCD90|HCD120|HCD150|HCD180,376.1312:276.0786:316.11|138.9946:121.0649:276.0787|138.9945:121.0648:73.0648|138.9947:121.0648:73.0648|138.9944:121.0648:139.0057|139.0058:138.9945:91.0542|95.0491:75.0229:139.0057|75.0229:95.0491:51.0229|75.0229:51.0229:74.0151,316.11;276.07865;139.0057;138.9945;121.0648;95.0491;91.0542;75.0229;74.0151;73.0648;51.0229,Eawag_Additional_Specs,NA,NA,NA,NA,NA,NA
stpQQR677,"RAN-dm|Desmethyl Ranitidine|(E)-1-N-methyl-1-N`-[2-[[5-(methylaminomethyl)furan-2-yl]methylsulfanyl]ethyl]-2-nitroethene-1,1-diamine",CN/C(NCCSCC1=CC=C(CNC)O1)=C\[N+]([O-])=O,300.1256,C12H20N4O3S,"InChI=1S/C12H20N4O3S/c1-13-7-10-3-4-11(19-10)9-20-6-5-15-12(14-2)8-16(17)18/h3-4,8,13-15H,5-7,9H2,1-2H3/b12-8+",CAS_RN: 66357-25-3,10380064,WZLBVRXZNDXPPW-XYOKQWHBSA-N,8555507,NA,Positive,ET300101|ET300102|ET300103|ET300104|ET300105|ET300106|ET300107|ET300108|ET300109,[M+H]+,HCD15|HCD30|HCD45|HCD60|HCD75|HCD90|HCD120|HCD150|HCD180,176.049:270.0906:124.0755|176.049:98.084:130.056|130.056:125.0056:102.0373|102.0372:125.0056:130.056|102.0372:81.0335:125.0058|81.0335:102.0371:97.0759|81.0335:102.0371:53.0386|53.0386:81.0335:56.0493|53.0385:51.0231:81.0447,270.0906;176.049;130.056;125.0056;124.0755;102.0372;98.084;97.0759;81.0447;81.0335;56.0493;53.0386;51.0231,Eawag_Additional_Specs,NA,NA,NA,NA,NA,NA
stpQQR678,SMZ-Pt,CC1=CC(NS(=O)(C2=CC=C(NCC3=NC(C(NC(N)=N4)=O)=C4N=C3)C=C2)=O)=NO1,428.1015,C17H16N8O4S,"InChI=1S/C17H16N8O4S/c1-9-6-13(24-29-9)25-30(27,28)12-4-2-10(3-5-12)19-7-11-8-20-15-14(21-11)16(26)23-17(18)22-15/h2-6,8,19H,7H2,1H3,(H,24,25)(H3,18,20,22,23,26)",CAS_RN: NA,NA,LVUVWJASQQPDSL-UHFFFAOYSA-N,NA,NA,Positive/Negative,ET310201|ET310202|ET310203|ET310204|ET310205|ET310206|ET310207|ET310208|ET310209,[M+H]+,HCD15|HCD30|HCD45|HCD60|HCD75|HCD90|HCD120|HCD150|HCD180,349.0712:331.0612:429.1072|267.0988:283.0938:176.0566|176.0567:240.0876:267.0987|176.0567:108.0556:195.0673|108.0554:124.0505:106.04|106.04:124.0504:81.0446|79.0291:81.0446:106.0397|79.0291:52.0181:81.0446|52.018:81.0448:54.0337,349.0712;331.0612;283.0938;267.09875;240.0876;195.0673;176.0567;124.05045;108.0555;106.04;81.0446;79.0291;54.0337;52.01805,Eawag_Additional_Specs,ET310251|ET310252|ET310253|ET310254|ET310255|ET310256|ET310257|ET310258|ET310259,[M-H]-,HCD15|HCD30|HCD45|HCD60|HCD75|HCD90|HCD120|HCD150|HCD180,427.0945:427.0444|331.0614:427.0941:252.045|175.0498:156.0122:267.1|175.0495:132.044:92.0506|132.044:175.05:92.0507|132.044:92.0504:66.0096|66.0097:132.0444:63.9623|66.0098|66.0098:63.9626:243.0457,427.0943;427.0444;331.0614;267.1;252.045;243.0457;175.0498;156.0122;132.044;92.0506;66.00975;63.96245,Eawag_Additional_Specs
stpQQR679,SMZ-PtO,CC1=CC(NS(=O)(C2=CC=C(NCC3=NC(C(NC(O)=N4)=O)=C4N=C3)C=C2)=O)=NO1,429.0855,C17H15N7O5S,"InChI=1S/C17H15N7O5S/c1-9-6-13(23-29-9)24-30(27,28)12-4-2-10(3-5-12)18-7-11-8-19-15-14(20-11)16(25)22-17(26)21-15/h2-6,8,18H,7H2,1H3,(H,23,24)(H2,19,21,22,25,26)",CAS_RN: NA,NA,ZTEDFROSGMEYCI-UHFFFAOYSA-N,NA,NA,Positive/Negative,ET310301|ET310302|ET310303|ET310304|ET310305|ET310306|ET310307|ET310308|ET310309,[M+H]+,HCD15|HCD30|HCD45|HCD60|HCD75|HCD90|HCD120|HCD150|HCD180,350.0552:332.0443:270.0983|268.0829:284.0778:350.0553|177.0407:195.0513:241.072|177.0408:178.0486:195.0514|106.04:124.0506:178.0486|106.04:124.0506:79.0291|79.0291:106.04:124.0506|79.0291:52.0182:89.0386|52.0182:79.0291:51.0229,350.05525;332.0443;284.0778;270.0983;268.0829;241.072;195.05135;178.0486;177.04075;124.0506;106.04;89.0386;79.0291;52.0182;51.0229,Eawag_Additional_Specs,ET310351|ET310352|ET310353|ET310354|ET310355|ET310356|ET310357|ET310358|ET310359,[M-H]-,HCD15|HCD30|HCD45|HCD60|HCD75|HCD90|HCD120|HCD150|HCD180,428.0784:332.0455:267.0767|332.0459:428.0786:176.0338|176.0339:332.046:268.084|176.0339:92.0506:107.0377|176.0339:92.0506:107.0377|176.0339:92.0506:107.0378|92.0505:63.9625:91.0428|63.9624:92.0506:77.9656|63.9625:77.9657:92.0509,428.0785;332.0459;268.084;267.0767;176.0339;107.0377;92.0506;91.0428;77.96565;63.9625,Eawag_Additional_Specs
stpQQR680,SMZ-AcOH,NA,311.0576,C12O5H13N3S1,NA,CAS_RN: NA,NA,NA,NA,NA,Positive/Negative,ET310401|ET310402|ET310403|ET310404|ET310405|ET310406|ET310407|ET310408|ET310409,[M+H]+,HCD15|HCD30|HCD45|HCD60|HCD75|HCD90|HCD120|HCD150|HCD180,312.0648:214.0169:89.0596|214.0169:151.0628:166.05|166.05:106.0651:150.055|120.0444:106.0651:166.05|120.0444:106.0651:104.0495|120.0444:106.0651:104.0494|65.0386:92.0495:120.0445|65.0386:95.0491:51.0229|65.0386:51.0229:50.0151,214.0169;166.05;151.0628;150.055;120.0444;106.0651;104.04945;95.0491;92.0495;89.0596;65.0386;51.0229;50.0151,Eawag_Additional_Specs,ET310451|ET310452|ET310453|ET310454|ET310455|ET310456|ET310457|ET310458|ET310459,[M-H]-,HCD15|HCD30|HCD45|HCD60|HCD75|HCD90|HCD120|HCD150|HCD180,310.0503:168.0124:266.0602|168.0124:185.039:170.0278|168.0124:185.0389:120.0455|168.0124:120.0455:63.9624|120.0455:168.0125:63.9625|120.0455:63.9624:92.0507|63.9625:120.0454:93.0346|63.9625:61.9705:120.0454|63.9625:61.9705:93.0345,310.0503;266.0602;185.03895;170.0278;168.0124;120.0455;93.03455;92.0507;63.9625;61.9705,Eawag_Additional_Specs
stpQQR681,MEF-Glu,O=C(CCC(NC(C1=C(C=CC=C1)NC2=CC=CC(C)=C2C)=O)C(O)=O)O,370.1529,C20H22N2O5,"InChI=1S/C20H22N2O5/c1-12-6-5-9-15(13(12)2)21-16-8-4-3-7-14(16)19(25)22-17(20(26)27)10-11-18(23)24/h3-9,17,21H,10-11H2,1-2H3,(H,22,25)(H,23,24)(H,26,27)",CAS_RN: NA,NA,HLEKOHRJHVCEKY-UHFFFAOYSA-N,NA,NA,Positive/Negative,ET320101|ET320102|ET320103|ET320104|ET320105|ET320106|ET320107|ET320108|ET320109,[M+H]+,HCD15|HCD30|HCD45|HCD60|HCD75|HCD90|HCD120|HCD150|HCD180,224.1069:371.1617:242.1179|224.1069:57.0698:285.0095|224.1069:209.0833:57.0698|224.1069:209.0835:57.0699|209.0835:224.1069:208.0758|209.0835:180.0807:208.0757|180.0807:208.0757:179.073|180.0807:152.062:179.073|152.062:178.0651:169.0648,285.0095;242.1179;224.1069;209.0835;208.0757;180.0807;179.073;178.0651;169.0648;152.062;57.0698,Eawag_Additional_Specs,ET320151|ET320152|ET320153|ET320154|ET320155|ET320156|ET320157|ET320158,[M-H]-,HCD15|HCD30|HCD45|HCD60|HCD75|HCD90|HCD120|HCD150,369.1454:240.1031:325.1559|325.1559:240.1028:281.1656|196.1131:221.1085:239.1189|196.1131:221.1084:194.0975|196.1129:194.0972:180.0823|180.0819:92.0505:194.0979|93.0349|324.0887,369.1454;325.1559;324.0887;281.1656;240.10295;239.1189;221.10845;196.1131;194.0975;180.0821;93.0349;92.0505,Eawag_Additional_Specs
stpQQR682,C10-LAS (TENTATIVE)|C10-linear alkylbenzyl sulfonate|4-(decan-4-yl)benzenesulfonic acid,OS(=O)(=O)c1ccc(cc1)C(CCC)CCCCCC,298.1603,C16H26O3S,"InChI=1S/C16H26O3S/c1-3-5-6-7-9-14(8-4-2)15-10-12-16(13-11-15)20(17,18)19/h10-14H,3-9H2,1-2H3,(H,17,18,19)",CAS_RN: NA,NA,NANHIUZYPFDGJS-UHFFFAOYSA-N,NA,NA,Negative,NA,NA,NA,NA,NA,NA,ETS00001;ETS00012;ETS00013;LIT00037,[M-H]-;[M-H]-;[M-H]-;[M-H]-,HCD60 NCE;HCD90 NCE;HCD90 NCE;CID45 V,297.1521:298.1552:183.0119;183.0114:119.0504:79.9565;183.0111:119.0503:79.9571;297.1525:298.158:236.1044,297.1523;236.1044;183.0114;119.05035;79.9568,Eawag_Additional_Specs2;Eawag_Additional_Specs2;Eawag_Additional_Specs2;Literature_Specs
stpQQR683,SPA-9C (TENTATIVE)|Propyl-(pentylcarboxy)-sulfophenyl carboxylic acid|6-(4-sulfophenyl)nonanoic acid,OS(=O)(=O)c1ccc(cc1)C(CCC)CCCCC(=O)O,314.1188,C15H22O5S,"InChI=1S/C15H22O5S/c1-2-5-12(6-3-4-7-15(16)17)13-8-10-14(11-9-13)21(18,19)20/h8-12H,2-7H2,1H3,(H,16,17)(H,18,19,20)",CAS_RN: NA,NA,OKAXESGQNYIPGL-UHFFFAOYSA-N,NA,NA,Negative,NA,NA,NA,NA,NA,NA,ETS00002;LIT00035,[M-H]-;[M-H]-,HCD60 NCE;CID29,313.1105:314.1137:197.0273;313.1102:183.0115:197.027,313.11035;197.02715;183.0115,Eawag_Additional_Specs2;Literature_Specs
stpQQR684,SPA-5DC (TENTATIVE)|Sulfophenyl alkyl dicarboxylic acid|4-(4-sulfophenyl)heptanedioic acid,OS(=O)(=O)c1ccc(cc1)C(CCC(=O)O)CCC(=O)O,316.0617,C13H16O7S,"InChI=1S/C13H16O7S/c14-12(15)7-3-10(4-8-13(16)17)9-1-5-11(6-2-9)21(18,19)20/h1-2,5-6,10H,3-4,7-8H2,(H,14,15)(H,16,17)(H,18,19,20)",CAS_RN: NA,NA,HOTNRZRMYIRTPN-UHFFFAOYSA-N,NA,DTXSID20891336,Negative,NA,NA,NA,NA,NA,NA,ETS00003,[M-H]-,HCD60 NCE,315.0533:243.0327:183.0119,315.0533;243.0327;183.0119,Eawag_Additional_Specs2
stpQQR685,"C10-DATS (TENTATIVE)|C10-Dialkyl tetralin sulfonate|8-butyl-5-ethyl-5,6,7,8-tetrahydronaphthalene-2-sulfonic acid|8-butyl-5-ethyl-tetralin sulfonate",O=S(=O)(O)c1ccc2c(c1)C(CCC2CC)CCCC,296.1446,C16H24SO3,"InChI=1S/C16H24O3S/c1-3-5-6-13-8-7-12(4-2)15-10-9-14(11-16(13)15)20(17,18)19/h9-13H,3-8H2,1-2H3,(H,17,18,19)",CAS_RN: NA,NA,ZANYAOJPVAPRQY-UHFFFAOYSA-N,NA,NA,Negative,NA,NA,NA,NA,NA,NA,ETS00004;LIT00001,[M-H]-;[M-H]-,HCD60 NCE;CID30 V (ramped),295.1363:210.0356:209.0262;295.1373:223.04334:253.09023,295.1368;253.09023;223.04334;210.0356;209.0262,Eawag_Additional_Specs2;Literature_Specs
stpQQR686,"STA-4C (TENTATIVE)|3-(4-ethyl-6-sulfo-1,2,3,4-tetrahydronaphthalen-1-yl)propanoic acid",O=S(=O)(O)c1ccc2c(c1)C(CCC2CCC(=O)O)CC,312.1031,C15H20SO5,"InChI=1S/C15H20O5S/c1-2-10-3-4-11(5-8-15(16)17)13-7-6-12(9-14(10)13)21(18,19)20/h6-7,9-11H,2-5,8H2,1H3,(H,16,17)(H,18,19,20)",CAS_RN: NA,NA,OXVZPANHCLMUFY-UHFFFAOYSA-N,NA,NA,Negative,NA,NA,NA,NA,NA,NA,ETS00005;ETS00006,[M-H]-;[M-H]-,HCD60 NCE;HCD60 NCE,311.0948:79.9576:267.1062;311.0948:79.9576:267.1062,311.0948;267.1062;79.9576,Eawag_Additional_Specs2;Eawag_Additional_Specs2
stpQQR687,"STA-0DC (TENTATIVE)|3-(4-ethyl-6-sulfo-1,2,3,4-tetrahydronaphthalen-1-yl)propanoic acid",O=S(=O)(O)c1ccc2c(c1)C(CCC2CCC(=O)O)CC,312.1031,C15H20SO5,"InChI=1S/C15H20O5S/c1-2-10-3-4-11(5-8-15(16)17)13-7-6-12(9-14(10)13)21(18,19)20/h6-7,9-11H,2-5,8H2,1H3,(H,16,17)(H,18,19,20)",CAS_RN: NA,NA,OXVZPANHCLMUFY-UHFFFAOYSA-N,NA,NA,Negative,NA,NA,NA,NA,NA,NA,ETS00005;ETS00006,[M-H]-;[M-H]-,HCD60 NCE;HCD60 NCE,311.0948:79.9576:267.1062;311.0948:79.9576:267.1062,311.0948;267.1062;79.9576,Eawag_Additional_Specs2;Eawag_Additional_Specs2
stpQQR688,C12-AS (TENTATIVE)|dodecyl hydrogen sulfate,OS(=O)(=O)OCCCCCCCCCCCC,266.1552,C12H26SO4,"InChI=1S/C12H26O4S/c1-2-3-4-5-6-7-8-9-10-11-12-16-17(13,14)15/h2-12H2,1H3,(H,13,14,15)",CAS_RN: NA,NA,MOTZDAYCYVMXPC-UHFFFAOYSA-N,NA,DTXSID0042088,Negative,NA,NA,NA,NA,NA,NA,SM876153;ETS00007,[M-H]-;[M-H]-,HCD35;HCD60 NCE,265.1479;265.147:96.9602:125.615,265.14745;125.615;96.9602,CASMI_2016;Eawag_Additional_Specs2
stpQQR689,C12-AE1S (TENTATIVE)|2-(dodecyloxy)ethyl hydrogen sulfate,O=S(O)(=O)OCCOCCCCCCCCCCCC,310.1814,C14H30SO5,"InChI=1S/C14H30O5S/c1-2-3-4-5-6-7-8-9-10-11-12-18-13-14-19-20(15,16)17/h2-14H2,1H3,(H,15,16,17)",CAS_RN: NA,NA,QTDIEDOANJISNP-UHFFFAOYSA-N,NA,DTXSID50274017,Negative,NA,NA,NA,NA,NA,NA,ETS00008,[M-H]-,HCD60 NCE,309.173:96.9603:122.976,309.173;122.976;96.9603,Eawag_Additional_Specs2
stpQQR690,C14-SAS (TENTATIVE)|tetradecane-7-sulfonic acid,O=S(=O)(O)C(CCCCCCC)CCCCCC,278.1916,C14H30SO3,"InChI=1S/C14H30O3S/c1-3-5-7-9-11-13-14(18(15,16)17)12-10-8-6-4-2/h14H,3-13H2,1-2H3,(H,15,16,17)",CAS_RN: NA,NA,MZBFYGYTZIZFQC-UHFFFAOYSA-N,NA,NA,Negative,NA,NA,NA,NA,NA,NA,ETS00009,[M-H]-,HCD60 NCE,277.1836:79.9576:80.9655,277.1836;80.9655;79.9576,Eawag_Additional_Specs2
stpQQR691,NP1EC (TENTATIVE)|NPEC1|Nonylphenyl-monoethoxylate-carboxylic acid|(4-nonylphenoxy)acetic acid,O=C(O)COc1ccc(cc1)CCCCCCCCC,278.1882,C17H26O3,"InChI=1S/C17H26O3/c1-2-3-4-5-6-7-8-9-15-10-12-16(13-11-15)20-14-17(18)19/h10-13H,2-9,14H2,1H3,(H,18,19)",CAS_RN: NA,NA,NISAHDHKGPWBEM-UHFFFAOYSA-N,NA,DTXSID4062850,Negative,NA,NA,NA,NA,NA,NA,ETS00010;LIT00039,[M-H]-;[M-H]-,HCD60 NCE;CID45 V,219.1747:277.1798:233.1903;219.1749:220.1773:236.1024,277.1798;236.1024;233.1903;220.1773;219.1748,Eawag_Additional_Specs2;Literature_Specs
stpQQR692,OP (TENTATIVE)|octyl phenol|4-octylphenol,Oc1ccc(cc1)CCCCCCCC,206.1671,C14H22O,"InChI=1S/C14H22O/c1-2-3-4-5-6-7-8-13-9-11-14(15)12-10-13/h9-12,15H,2-8H2,1H3",CAS_RN: NA,NA,NTDQQZYCCIDJRK-UHFFFAOYSA-N,NA,DTXSID9022312,Positive,ETS00011,[M+H]+,HCD75 NCE,137.0958:207.1741:147.117,147.117;137.0958,Eawag_Additional_Specs2,NA,NA,NA,NA,NA,NA
stpQQR693,C10-LAS (STANDARD MIX)|C10-linear alkylbenzyl sulfonate|4-(decan-4-yl)benzenesulfonic acid,OS(=O)(=O)c1ccc(cc1)C(CCC)CCCCCC,298.1603,C16H26O3S,"InChI=1S/C16H26O3S/c1-3-5-6-7-9-14(8-4-2)15-10-12-16(13-11-15)20(17,18)19/h10-14H,3-9H2,1-2H3,(H,17,18,19)",CAS_RN: NA,NA,NANHIUZYPFDGJS-UHFFFAOYSA-N,NA,NA,Negative,NA,NA,NA,NA,NA,NA,ETS00001;ETS00012;ETS00013;LIT00037,[M-H]-;[M-H]-;[M-H]-;[M-H]-,HCD60 NCE;HCD90 NCE;HCD90 NCE;CID45 V,297.1521:298.1552:183.0119;183.0114:119.0504:79.9565;183.0111:119.0503:79.9571;297.1525:298.158:236.1044,297.1523;236.1044;183.0114;119.05035;79.9568,Eawag_Additional_Specs2;Eawag_Additional_Specs2;Eawag_Additional_Specs2;Literature_Specs
stpQQR694,C10-LAS (SAMPLE)|C10-linear alkylbenzyl sulfonate|4-(decan-4-yl)benzenesulfonic acid,OS(=O)(=O)c1ccc(cc1)C(CCC)CCCCCC,298.1603,C16H26O3S,"InChI=1S/C16H26O3S/c1-3-5-6-7-9-14(8-4-2)15-10-12-16(13-11-15)20(17,18)19/h10-14H,3-9H2,1-2H3,(H,17,18,19)",CAS_RN: NA,NA,NANHIUZYPFDGJS-UHFFFAOYSA-N,NA,NA,Negative,NA,NA,NA,NA,NA,NA,ETS00001;ETS00012;ETS00013;LIT00037,[M-H]-;[M-H]-;[M-H]-;[M-H]-,HCD60 NCE;HCD90 NCE;HCD90 NCE;CID45 V,297.1521:298.1552:183.0119;183.0114:119.0504:79.9565;183.0111:119.0503:79.9571;297.1525:298.158:236.1044,297.1523;236.1044;183.0114;119.05035;79.9568,Eawag_Additional_Specs2;Eawag_Additional_Specs2;Eawag_Additional_Specs2;Literature_Specs
stpQQR695,C11-LAS (STANDARD MIX)|C11-linear alkylbenzyl sulfonate|4-(undecan-5-yl)benzenesulfonic acid,OS(=O)(=O)c1ccc(cc1)C(CCCC)CCCCCC,312.1759,C17H28O3S,"InChI=1S/C17H28O3S/c1-3-5-7-8-10-15(9-6-4-2)16-11-13-17(14-12-16)21(18,19)20/h11-15H,3-10H2,1-2H3,(H,18,19,20)",CAS_RN: NA,NA,FERBTPHUEYEGDN-UHFFFAOYSA-N,NA,DTXSID40881097,Negative,NA,NA,NA,NA,NA,NA,ETS00014;ETS00015,[M-H]-;[M-H]-,HCD90 NCE;HCD90 NCE,183.0115:119.0505:79.9566;183.0116:119.0505:79.9566,183.01155;119.0505;79.9566,Eawag_Additional_Specs2;Eawag_Additional_Specs2
stpQQR696,C11-LAS (SAMPLE)|C11-linear alkylbenzyl sulfonate|4-(undecan-5-yl)benzenesulfonic acid,OS(=O)(=O)c1ccc(cc1)C(CCCC)CCCCCC,312.1759,C17H28O3S,"InChI=1S/C17H28O3S/c1-3-5-7-8-10-15(9-6-4-2)16-11-13-17(14-12-16)21(18,19)20/h11-15H,3-10H2,1-2H3,(H,18,19,20)",CAS_RN: NA,NA,FERBTPHUEYEGDN-UHFFFAOYSA-N,NA,DTXSID40881097,Negative,NA,NA,NA,NA,NA,NA,ETS00014;ETS00015,[M-H]-;[M-H]-,HCD90 NCE;HCD90 NCE,183.0115:119.0505:79.9566;183.0116:119.0505:79.9566,183.01155;119.0505;79.9566,Eawag_Additional_Specs2;Eawag_Additional_Specs2