NORMAN_ID,NAME,SMILES,NEUTRAL_EXACT_MASS,FORMULA,StdInChI,CAS_RN,PUBCHEM_CID,InChIKey,CHEMSPIDER_ID,DTXSID,Preferable Ionization,MB_Records Positive Ionization,Adduct Positive Ionization,Ionisation type and collision energy Positive Ionization,Fragments Positive Ionization,Simplified_fragments_Positive,Institute Positive Ionization,MB_Records Negative Ionization,Adduct Negative Ionization,Ionisation type and collision energy Negative Ionization,Fragments Negative Ionization,Simplified_fragments_Negative,Institute Negative Ionization
stpQQR265,"Metconazole|5-[(4-chlorophenyl)methyl]-2,2-dimethyl-1-(1,2,4-triazol-1-ylmethyl)cyclopentan-1-ol",CC1(C)CCC(Cc2ccc(Cl)cc2)C1(O)Cn1cncn1,319.14514,C17H22ClN3O,"InChI=1S/C17H22ClN3O/c1-16(2)8-7-14(9-13-3-5-15(18)6-4-13)17(16,22)10-21-12-19-11-20-21/h3-6,11-12,14,22H,7-10H2,1-2H3",CAS_RN: 125116-23-6,86210,XWPZUHJBOLQNMN-UHFFFAOYSA-N,77764,DTXSID4034497,Positive,SM844602;EQ317101|EQ317102|EQ317103|EQ317104|EQ317105|EQ317106,[M+H]+;[M+H]+,HCD35;HCD15|HCD30|HCD45|HCD60|HCD75|HCD90,70.04:320.1525:125.0152;320.1524:70.0399:125.0151|70.04:320.1524:125.0152|70.04:125.0153:177.0466|70.04:125.0153:95.0855|70.04:125.0153:142.0778|70.04:125.0153:89.0386,177.0466;142.0778;125.0153;95.0855;89.0386;70.04,CASMI_2016;Eawag,NA,NA,NA,NA,NA,NA
stpQQR266,"Benalaxyl|methyl 2-(2,6-dimethyl-N-(2-phenylacetyl)anilino)propanoate",COC(=O)C(C)N(C(=O)Cc1ccccc1)c1c(C)cccc1C,325.16779,C20H23NO3,"InChI=1S/C20H23NO3/c1-14-9-8-10-15(2)19(14)21(16(3)20(23)24-4)18(22)13-17-11-6-5-7-12-17/h5-12,16H,13H2,1-4H3",CAS_RN: 98243-83-5,51369,CJPQIRJHIZUAQP-UHFFFAOYSA-N,46525,DTXSID3041619,Positive,SM844702;EQ303501|EQ303502|EQ303503|EQ303504|EQ303505|EQ303506;UA003201|UA003203,[M+H]+;[M+H]+;[M+H]+,HCD35;HCD15|HCD30|HCD45|HCD60|HCD75|HCD90;CID35|CID35,148.1119:91.0542:294.1487;294.149:208.1334:326.1753|148.1122:208.1333:91.0543|148.1122:91.0543:121.0887|148.1122:91.0543:121.0887|91.0543:148.1122:121.0886|91.0543:148.1122:121.0887;294.15:208.1334:266.1546|294.1488:208.1335:266.154,294.1489;266.1543;208.1334;148.1122;121.0887;91.0543,CASMI_2016;Eawag;UFZ_Additional_Specs,NA,NA,NA,NA,NA,NA
stpQQR267,Acetamiprid|N-[(6-chloropyridin-3-yl)methyl]-N`-cyano-N-methylethanimidamide,CN(Cc1ccc(Cl)nc1)C(C)=NC#N,222.06722,C10H11ClN4,"InChI=1S/C10H11ClN4/c1-8(14-7-12)15(2)6-9-3-4-10(11)13-5-9/h3-5H,6H2,1-2H3",CAS_RN: 135410-20-7,213021,WCXDHFDTOYPNIE-UHFFFAOYSA-N,21130168,NA,Positive/Negative,SM844801;EA298601|EA298602|EA298603|EA298604|EA298605|EA298606|EA298607|EA298608|EA298609|EA298610|EA298611|EA298612|EA298613|EA298614,[M+H]+;[M+H]+,HCD35;CID35|HCD15|HCD30|HCD45|HCD60|HCD75|HCD90|HCD15|HCD30|HCD45|HCD60|HCD75|HCD90|CID35,126.0105:223.0745:56.0497;126.0104:187.0976:196.0634|223.0741:126.0107:196.0641|223.0744:126.0104:56.0495|126.0105:223.0742:56.0495|126.0104:56.0494:90.0338|126.0105:90.0338:98.9996|126.0104:90.0338:98.9995|223.0742:126.0101:56.0494|223.0744:126.0105:56.0495|126.0104:223.0742:56.0494|126.0105:56.0494:90.0338|126.0104:90.0338:98.9995|126.0104:90.0337:98.9995|126.0104:187.0977:196.0635,196.0635;187.09765;126.0104;98.9995;90.0338;56.04945,CASMI_2016;Eawag,EA298651|EA298652|EA298653|EA298658,[M-H]-,CID35|HCD15|HCD30|HCD15,140.0271|221.0595|221.0604:140.0278|221.0596,221.0596;140.02745,Eawag
stpQQR268,"Terbuthylazine-2-hydroxy|Hydroxyterbuthylazine|2-(tert-butylamino)-6-(ethylamino)-1H-1,3,5-triazin-4-one",CCNC1=NC(=O)N=C(NC(C)(C)C)N1,211.14331,C9H17N5O,"InChI=1S/C9H17N5O/c1-5-10-6-11-7(13-8(15)12-6)14-9(2,3)4/h5H2,1-4H3,(H3,10,11,12,13,14,15)",CAS_RN: 66753-07-9,5151089,OYTCZOJKXCTBHG-UHFFFAOYSA-N,4324299,DTXSID20216888,Positive/Negative,AU208101|AU208102|AU208103|AU208104|AU208105;SM844901;EA034701|EA034702|EA034703|EA034704|EA034705|EA034706|EA034707|EA034708|EA034709|EA034710|EA034711|EA034712|EA034713|EA034714,[M+H]+;[M+H]+;[M+H]+,CID10|CID20|CID30|CID40|CID50;HCD35;CID35|HCD15|HCD30|HCD45|HCD60|HCD75|HCD90|HCD15|HCD30|HCD45|HCD60|HCD75|HCD90|CID35,212.15:156.0869:213.1528|156.0872:157.0892:212.1499|156.0872:114.0658:128.0557|156.0871:114.0655:128.0557|156.0867:114.0671:128.0554;128.0261:99.0553:126.0105;156.088:86.0348:170.1039|212.1505:156.0879|212.1506:156.088:86.0349|156.0879:212.1503:86.0349|156.0879:114.0661:86.0349|156.0879:86.0349:114.0662|69.0084:86.0349:114.0662|212.1506:156.088|212.1504:156.0879:57.0697|156.088:212.1505:86.0349|156.0879:114.0661:86.0349|156.088:86.0349:114.0662|69.0083:86.0349:114.0661|156.088:86.0349:170.1037,170.1038;157.0892;156.0879;128.0557;128.0261;126.0105;114.0661;99.0553;86.0349;69.00835;57.0697,Athens_Univ;CASMI_2016;Eawag,EA034751|EA034752|EA034753|EA034754|EA034755|EA034756|EA034757|EA034758|EA034759|EA034760|EA034761|EA034762|EA034763,[M-H]-,CID35|HCD15|HCD30|HCD45|HCD60|HCD75|HCD90|HCD15|HCD30|HCD45|HCD60|HCD75|HCD90,154.0737:97.0773:210.1361|210.1361:154.0744|210.1361:154.0732:97.0773|210.136:97.0772:154.0734|97.0772:154.0735:69.0458|97.0772:154.0742:69.0458|97.0772|210.136:154.0736|210.136:154.0733:97.0771|210.1359:154.0734:97.0772|97.0771:154.0732:210.1363|97.0771:154.0739:69.0457|97.0771:81.0459:69.0458,210.13605;154.0735;97.0772;81.0459;69.0458,Eawag
stpQQR269,Chlorpropham|propan-2-yl N-(3-chlorophenyl)carbamate,CC(C)OC(=O)Nc1cccc(Cl)c1,213.05566,C10H12ClNO2,"InChI=1S/C10H12ClNO2/c1-7(2)14-10(13)12-9-5-3-4-8(11)6-9/h3-7H,1-2H3,(H,12,13)",CAS_RN: 101-21-3,2728,CWJSHJJYOPWUGX-UHFFFAOYSA-N,2627,DTXSID7020764,Positive,SM845003,[M+H]+,HCD35,94.0652:106.0652:124.087,124.087;106.0652;94.0652,CASMI_2016,NA,NA,NA,NA,NA,NA
stpQQR270,"Clopyralid|3,6-Dichloropicolinic acid|3,6-dichloropyridine-2-carboxylic acid",OC(=O)c1nc(Cl)ccc1Cl,190.95408,C6H3Cl2NO2,"InChI=1S/C6H3Cl2NO2/c7-3-1-2-4(8)9-5(3)6(10)11/h1-2H,(H,10,11)",CAS_RN: 1702-17-6,15553,HUBANNPOLNYSAD-UHFFFAOYSA-N,14797,DTXSID9029221,Positive/Negative,SM845102,[M+H]+,HCD35,191.9613:163.9663:145.9558,163.9663;145.9558,CASMI_2016,SM845151,[M-H]-,HCD35,145.957:189.9467,189.9467;145.957,CASMI_2016
stpQQR271,Picoxystrobin|methyl 3-methoxy-2-[2-[[6-(trifluoromethyl)pyridin-2-yl]oxymethyl]phenyl]prop-2-enoate,COC=C(C(=O)OC)C1=CC=CC=C1COC1=CC=CC(=N1)C(F)(F)F,367.10314,C18H16F3NO4,"InChI=1S/C18H16F3NO4/c1-24-11-14(17(23)25-2)13-7-4-3-6-12(13)10-26-16-9-5-8-15(22-16)18(19,20)21/h3-9,11H,10H2,1-2H3",CAS_RN: 117428-22-5,53394839,IBSNKSODLGJUMQ-UHFFFAOYSA-N,26469327,NA,Positive,SM845203,[M+H]+,HCD35,145.0648:205.086:117.0699,205.086;145.0648;117.0699,CASMI_2016,NA,NA,NA,NA,NA,NA
stpQQR272,"Bifenox free acid|Bifenox acid|5-(2,4-dichlorophenoxy)-2-nitrobenzoic acid",OC(=O)C1=C(C=CC(OC2=C(Cl)C=C(Cl)C=C2)=C1)[N+]([O-])=O,326.97013,C13H7Cl2NO5,"InChI=1S/C13H7Cl2NO5/c14-7-1-4-12(10(15)5-7)21-8-2-3-11(16(19)20)9(6-8)13(17)18/h1-6H,(H,17,18)",CAS_RN: 53774-07-5,148653,IUSYSZLVZMUVDO-UHFFFAOYSA-N,131044,DTXSID9073547,Negative,NA,NA,NA,NA,NA,NA,SM845351,[M-H]-,HCD35,281.973:160.9566:137.0117,281.973;160.9566;137.0117,CASMI_2016
stpQQR273,"Bupirimate|[5-butyl-2-(ethylamino)-6-methylpyrimidin-4-yl] N,N-dimethylsulfamate",CCCCC1=C(C)N=C(NCC)N=C1OS(=O)(=O)N(C)C,316.15691,C13H24N4O3S,"InChI=1S/C13H24N4O3S/c1-6-8-9-11-10(3)15-13(14-7-2)16-12(11)20-21(18,19)17(4)5/h6-9H2,1-5H3,(H,14,15,16)",CAS_RN: 58694-46-5,38884,DSKJPMWIHSOYEA-UHFFFAOYSA-N,35588,DTXSID6041688,Positive,SM845402,[M+H]+,HCD35,317.1643:166.0975:108.0114,166.0975;108.0114,CASMI_2016,NA,NA,NA,NA,NA,NA
stpQQR274,"Clothianidin|1-[(2-chloro-1,3-thiazol-5-yl)methyl]-2-methyl-3-nitroguanidine",CN=C(NCC1=CN=C(Cl)S1)N[N+]([O-])=O,249.00872,C6H8ClN5O2S,"InChI=1S/C6H8ClN5O2S/c1-8-6(11-12(13)14)10-3-4-2-9-5(7)15-4/h2H,3H2,1H3,(H2,8,10,11)",CAS_RN: 15203-78-8,213027,PGOOBECODWQEAB-UHFFFAOYSA-N,184723,DTXSID2034465,Positive/Negative,SM845501;EA293301|EA293302|EA293303|EA293304|EA293305|EA293306|EA293307|EA293308|EA293309|EA293310|EA293311|EA293312|EA293313|EA293314,[M+H]+;[M+H]+,HCD35;CID35|HCD15|HCD30|HCD45|HCD60|HCD75|HCD90|HCD15|HCD30|HCD45|HCD60|HCD75|HCD90|CID35,131.9669:169.0542:113.0168;169.0542:168.0466:131.9671|250.0161:169.0542:131.967|169.0543:131.9669:168.0465|131.967:169.0544:113.0168|131.9671:113.0169:169.0542|131.9671:113.0168:110.0713|131.967:113.0168:110.0713|250.016:169.0541:131.9669|131.9668:169.0541:168.0464|131.9668:169.0542:113.0168|131.9668:113.0168:169.0542|131.9668:113.0167:110.0712|131.9669:113.0167:110.0712|169.0541:168.0464:131.9669,169.0542;168.04645;131.9669;113.0168;110.07125,CASMI_2016;Eawag,SM845551;EA293351|EA293352|EA293353|EA293354|EA293355|EA293356|EA293357|EA293358|EA293359|EA293360|EA293361|EA293362|EA293363,[M-H]-;[M-H]-,HCD35;CID35|HCD15|HCD30|HCD45|HCD60|HCD75|HCD90|HCD15|HCD30|HCD45|HCD60|HCD75|HCD90,165.0239:248.0014:150.0004;166.0322:111.0026:212.025|248.0009:57.9757:166.0316|57.9757:165.0237|57.9758:165.0239:248.0016|57.9756:150.0008:165.0248|57.9757|57.9757|248.0014:57.9757:166.0319|57.9757:165.0239:111.0023|57.9757:165.0243:150.0006|57.9757:195.9461:150.0004|57.9757:195.9459|57.9757,248.0014;212.025;195.946;166.0319;165.0239;150.0005;111.00245;57.9757,CASMI_2016;Eawag
stpQQR275,"Cyromazine|2-N-cyclopropyl-1,3,5-triazine-2,4,6-triamine",NC1=NC(NC2CC2)=NC(N)=N1,166.09669,C6H10N6,"InChI=1S/C6H10N6/c7-4-10-5(8)12-6(11-4)9-3-1-2-3/h3H,1-2H2,(H5,7,8,9,10,11,12)",CAS_RN: 66215-27-8,47866,LVQDKIWDGQRHTE-UHFFFAOYSA-N,43550,DTXSID6023999,Positive,AU302101|AU302102|AU302103|AU302104|AU302105;SM845603,[M+H]+;[M+H]+,CID10|CID20|CID30|CID40|CID50;HCD35,167.1053:168.1067:125.0822|167.1045:125.0825:168.1068|167.1044:125.082:139.0726|151.0727:125.0827:127.0724|151.0715;167.1039:85.0508:60.0557,151.0721;139.0726;127.0724;125.08235;85.0508;60.0557,Athens_Univ;CASMI_2016,NA,NA,NA,NA,NA,NA
stpQQR276,"Difenoconazole|1-[[2-[2-chloro-4-(4-chlorophenoxy)phenyl]-4-methyl-1,3-dioxolan-2-yl]methyl]-1,2,4-triazole",CC1COC(CN2C=NC=N2)(O1)C1=C(Cl)C=C(OC2=CC=C(Cl)C=C2)C=C1,405.0647,C19H17Cl2N3O3,"InChI=1S/C19H17Cl2N3O3/c1-13-9-25-19(27-13,10-24-12-22-11-23-24)17-7-6-16(8-18(17)21)26-15-4-2-14(20)3-5-15/h2-8,11-13H,9-10H2,1H3",CAS_RN: 119446-68-3,86173,BQYJATMQXGBDHF-UHFFFAOYSA-N,77730,DTXSID4032372,Positive,SM845701;EA293401|EA293402|EA293403|EA293404|EA293405|EA293406|EA293407|EA293408|EA293409|EA293410|EA293411|EA293412|EA293413|EA293414,[M+H]+;[M+H]+,HCD35;CID35|HCD15|HCD30|HCD45|HCD60|HCD75|HCD90|HCD15|HCD30|HCD45|HCD60|HCD75|HCD90|CID35,251.0025:406.0721:337.0393;337.039:251.0025:291.0334|406.0722:337.0395:251.0027|251.0026:337.0391:406.073|251.0023:264.9817:291.0338|251.0025:188.0387:223.0075|251.0028:188.0387:139.0057|139.0057:188.0386:141.0101|406.0712:337.0388|251.0023:337.0391:406.0718|251.0022:264.9815:291.0333|251.0023:188.0387:223.0075|188.0388:251.0025:139.0058|139.0057:188.0387:153.0699|337.039:251.0024:291.0337,337.0391;291.03355;264.9816;251.0025;223.0075;188.0387;153.0699;141.0101;139.0057,CASMI_2016;Eawag,NA,NA,NA,NA,NA,NA
stpQQR277,"Diflubenzuron|N-[(4-chlorophenyl)carbamoyl]-2,6-difluorobenzamide",FC1=CC=CC(F)=C1C(=O)NC(=O)NC1=CC=C(Cl)C=C1,310.03206,C14H9ClF2N2O2,"InChI=1S/C14H9ClF2N2O2/c15-8-4-6-9(7-5-8)18-14(21)19-13(20)12-10(16)2-1-3-11(12)17/h1-7H,(H2,18,19,20,21)",CAS_RN: 35367-38-5,37123,QQQYTWIFVNKMRW-UHFFFAOYSA-N,34065,DTXSID1024049,Positive/Negative,AU338801|AU338802|AU338803|AU338804|AU338805;SM845803,[M+H]+;[M+H]+,CID10|CID20|CID40|CID40|CID50;HCD35,158.0398:311.0393:313.036|158.0395:141.0133:159.0437|158.0402:141.0142:142.0162|141.0143:158.04:140.0307|141.0138:158.04;158.0412:141.0145:311.0393,159.0437;158.04;142.0162;141.0142;140.0307,Athens_Univ;CASMI_2016,SM845852,[M-H]-,HCD35,289.0186:156.0266:309.0249,309.0249;289.0186;156.0266,CASMI_2016
stpQQR278,"Dodemorph|4-cyclododecyl-2,6-dimethylmorpholine",CC1CN(CC(C)O1)C1CCCCCCCCCCC1,281.27186,C18H35NO,"InChI=1S/C18H35NO/c1-16-14-19(15-17(2)20-16)18-12-10-8-6-4-3-5-7-9-11-13-18/h16-18H,3-15H2,1-2H3",CAS_RN: 1593-77-7,61899,JMXKCYUTURMERF-UHFFFAOYSA-N,55760,DTXSID5041019,Positive,SM845901,[M+H]+,HCD35,282.2792:116.107:98.0964,116.107;98.0964,CASMI_2016,NA,NA,NA,NA,NA,NA
stpQQR279,Fenoxycarb|ethyl N-[2-(4-phenoxyphenoxy)ethyl]carbamate,CCOC(=O)NCCOC1=CC=C(OC2=CC=CC=C2)C=C1,301.13141,C17H19NO4,"InChI=1S/C17H19NO4/c1-2-20-17(19)18-12-13-21-14-8-10-16(11-9-14)22-15-6-4-3-5-7-15/h3-11H,2,12-13H2,1H3,(H,18,19)",CAS_RN: 79127-80-3,51605,HJUFTIJOISQSKQ-UHFFFAOYSA-N,46739,DTXSID7032393,Positive,SM846001;EA294001|EA294002|EA294003|EA294004|EA294005|EA294006|EA294007|EA294008|EA294009|EA294010|EA294011|EA294012|EA294013|EA294014,[M+H]+;[M+H]+,HCD35;CID35|HCD15|HCD30|HCD45|HCD60|HCD75|HCD90|HCD15|HCD30|HCD45|HCD60|HCD75|HCD90|CID35,88.0393:116.0707:256.0969;116.0706:256.0969:88.0394|302.1386:116.0707:88.0393|88.0393:116.0707:256.0968|88.0392:116.0706:256.0967|88.0393:116.0706:70.0288|88.0394:70.0288:141.07|88.0394:115.0542:70.0288|116.0706:302.1388:88.0394|88.0394:116.0707:256.0971|88.0393:116.0706:256.0969|88.0393:116.0707:70.0288|88.0393:70.0288:129.0699|88.0393:115.0542:70.0287|116.0706:256.0969:88.0394,256.0969;141.07;129.0699;116.0706;115.0542;88.0393;70.0288,CASMI_2016;Eawag,NA,NA,NA,NA,NA,NA
stpQQR280,Fenpropidin|1-[3-(4-tert-butylphenyl)-2-methylpropyl]piperidine,CC(CN1CCCCC1)CC1=CC=C(C=C1)C(C)(C)C,273.24565,C19H31N,"InChI=1S/C19H31N/c1-16(15-20-12-6-5-7-13-20)14-17-8-10-18(11-9-17)19(2,3)4/h8-11,16H,5-7,12-15H2,1-4H3",CAS_RN: 67306-00-7,91694,MGNFYQILYYYUBS-UHFFFAOYSA-N,82797,DTXSID9058157,Positive,SM846103;EA295801|EA295802|EA295803|EA295804|EA295805|EA295806|EA295807|EA295808|EA295809|EA295810|EA295811|EA295812|EA295813|EA295814,[M+H]+;[M+H]+,HCD35;CID35|HCD15|HCD30|HCD45|HCD60|HCD75|HCD90|HCD15|HCD30|HCD45|HCD60|HCD75|HCD90|CID35,274.2529:147.1168:86.0964;147.1169:274.253:86.0965|274.253|274.253|274.2529:147.1169:86.0965|274.2529:147.1169:86.0965|147.1169:86.0965:132.0934|132.0933:147.1168:119.0855|274.2529|274.253|274.2529:147.1168:86.0965|274.2529:147.1168:86.0964|147.1168:86.0965:132.0933|132.0932:147.1166:119.0854|147.1167:86.0964:218.1902,218.1902;147.1168;132.0933;119.08545;86.0965,CASMI_2016;Eawag,NA,NA,NA,NA,NA,NA
stpQQR281,"Fluoxastrobin|(E)-1-[2-[6-(2-chlorophenoxy)-5-fluoropyrimidin-4-yl]oxyphenyl]-1-(5,6-dihydro-1,4,2-dioxazin-3-yl)-N-methoxymethanimine",CO\N=C(\C1=NOCCO1)C1=C(OC2=C(F)C(OC3=C(Cl)C=CC=C3)=NC=N2)C=CC=C1,458.07933,C21H16ClFN4O5,"InChI=1S/C21H16ClFN4O5/c1-28-26-18(21-27-30-11-10-29-21)13-6-2-4-8-15(13)31-19-17(23)20(25-12-24-19)32-16-9-5-3-7-14(16)22/h2-9,12H,10-11H2,1H3/b26-18+",CAS_RN: 361377-29-9,11048796,UFEODZBUAFNAEU-NLRVBDNBSA-N,9223963,DTXSID2034625,Positive,SM846202;EQ305801|EQ305802|EQ305803|EQ305804|EQ305805|EQ305806,[M+H]+;[M+H]+,HCD35;HCD15|HCD30|HCD45|HCD60|HCD75|HCD90,427.0608:459.0869:188.0381;427.0602:459.0865:383.0341|427.0603:188.0382:383.0342|188.038:138.0105:306.0672|188.038:138.0105:150.0349|188.038:150.035:138.0105|188.038:130.04:139.0057,427.0603;383.03415;306.0672;188.038;150.03495;139.0057;138.0105;130.04,CASMI_2016;Eawag,NA,NA,NA,NA,NA,NA
stpQQR282,Imidacloprid urea|1-[(6-chloropyridin-3-yl)methyl]imidazolidin-2-one,c1cc(ncc1CN2CCN=C2O)Cl,211.05124,C9H10ClN3O,"InChI=1S/C9H10ClN3O/c10-8-2-1-7(5-12-8)6-13-4-3-11-9(13)14/h1-2,5H,3-4,6H2,(H,11,14)",CAS_RN: NA,15390532,ADWTYURAFSWNSU-UHFFFAOYSA-N,10248201,DTXSID1037563,Positive,AU204901|AU204902|AU204903|AU204904|AU204905;SM846301;EA295601|EA295602|EA295603|EA295604|EA295605|EA295606|EA295607|EA295608|EA295609|EA295610|EA295611|EA295612|EA295613|EA295614,[M+H]+;[M+H]+;[M+H]+,CID10|CID20|CID30|CID40|CID50;HCD35;CID35|HCD15|HCD30|HCD45|HCD60|HCD75|HCD90|HCD15|HCD30|HCD45|HCD60|HCD75|HCD90|CID35,212.0575:214.0548:213.0604|212.0578:128.0253:214.0548|128.0253:126.0096:130.0222|128.0253:126.0096:127.0142|126.0096:127.0142:128.0253;212.0585:128.0261:99.0553;128.0263:99.0554:195.0322|212.0585:128.0262:214.0623|212.0585:128.0262:99.0554|128.0262:212.0584:99.0553|128.0262:126.0105:99.0553|128.0262:126.0105:99.0553|128.0262:126.0106:99.0554|212.0584:128.0262:99.0553|212.0585:128.0261:99.0553|128.0262:212.0585:99.0553|128.0262:126.0105:99.0553|128.0261:126.0105:99.0552|128.026:126.0104:99.0552|128.0262:99.0553:195.032,195.0321;130.0222;128.0262;127.0142;126.0105;99.0553,Athens_Univ;CASMI_2016;Eawag,NA,NA,NA,NA,NA,NA
stpQQR283,"Oryzalin|4-(dipropylamino)-3,5-dinitrobenzenesulfonamide",CCCN(CCC)C1=C(C=C(C=C1[N+]([O-])=O)S(N)(=O)=O)[N+]([O-])=O,346.09471,C12H18N4O6S,"InChI=1S/C12H18N4O6S/c1-3-5-14(6-4-2)12-10(15(17)18)7-9(23(13,21)22)8-11(12)16(19)20/h7-8H,3-6H2,1-2H3,(H2,13,21,22)",CAS_RN: 19044-88-3,29393,UNAHYJYOSSSJHH-UHFFFAOYSA-N,27326,DTXSID8024238,Positive/Negative,SM846503;EQ309901|EQ309902|EQ309903|EQ309904|EQ309905|EQ309906,[M+H]+;[M+H]+,HCD35;HCD15|HCD30|HCD45|HCD60|HCD75|HCD90,347.1022:288.0287:305.0552;347.1019:305.0549:247.0131|288.0285:247.0132:263.0081|198.0145:245.9816:240.0615|198.0146:133.0397:117.0572|78.0338:198.0146:133.0397|78.0338:133.0397:117.0572,305.05505;288.0286;263.0081;247.01315;245.9816;240.0615;198.0146;133.0397;117.0572;78.0338,CASMI_2016;Eawag,SM846552;EQ309951|EQ309952|EQ309953|EQ309954|EQ309955|EQ309956,[M-H]-;[M-H]-,HCD35;HCD15|HCD30|HCD45|HCD60|HCD75|HCD90,345.0873:281.1255:147.0438;345.0874:281.1256:77.9655|345.0875:281.1255:77.9655|77.9655:174.0672:147.0438|77.9656:116.0255:79.9812|77.9656:79.9812:65.0145|77.9656:61.9706:89.0146,345.0874;281.1255;174.0672;147.0438;116.0255;89.0146;79.9812;77.96555;65.0145;61.9706,CASMI_2016;Eawag
stpQQR284,"Oxadiazone|5-tert-butyl-3-(2,4-dichloro-5-propan-2-yloxyphenyl)-1,3,4-oxadiazol-2-one",CC(C)OC1=CC(N2N=C(OC2=O)C(C)(C)C)=C(Cl)C=C1Cl,344.06945,C15H18Cl2N2O3,"InChI=1S/C15H18Cl2N2O3/c1-8(2)21-12-7-11(9(16)6-10(12)17)19-14(20)22-13(18-19)15(3,4)5/h6-8H,1-5H3",CAS_RN: 19666-30-9,29732,CHNUNORXWHYHNE-UHFFFAOYSA-N,27628,DTXSID3024239,Positive,SM846603;EQ370401|EQ370402|EQ370403|EQ370404|EQ370405|EQ370406|EQ370407|EQ370408|EQ370409,[M+H]+;[M+H]+,HCD35;HCD15|HCD30|HCD45|HCD60|HCD75|HCD90|HCD120|HCD150|HCD180,303.0299:219.9563:176.9505;303.0297:345.0767:219.9563|219.9563:303.0298:176.9505|176.9505:184.9875:219.9564|184.9874:176.9505:148.9556|184.9875:176.9505:148.9556|112.9789:148.9556:128.9976|84.984:94.0288:112.9789|84.9839:53.0022:62.9632|53.0022:84.984:62.9632,303.0298;219.9563;184.9875;176.9505;148.9556;128.9976;112.9789;94.0288;84.984;62.9632;53.0022,CASMI_2016;Eawag,NA,NA,NA,NA,NA,NA
stpQQR285,"Propyzamide|3,5-dichloro-N-(2-methylbut-3-yn-2-yl)benzamide",CC(C)(NC(=O)C1=CC(Cl)=CC(Cl)=C1)C#C,255.02177,C12H11Cl2NO,"InChI=1S/C12H11Cl2NO/c1-4-12(2,3)15-11(16)8-5-9(13)7-10(14)6-8/h1,5-7H,2-3H3,(H,15,16)",CAS_RN: 23950-58-5,32154,PHNUZKMIPFFYSO-UHFFFAOYSA-N,29822,DTXSID2020420,Positive/Negative,SM846703;EQ317501|EQ317502|EQ317503|EQ317504|EQ317505|EQ317506,[M+H]+;[M+H]+,HCD35;HCD15|HCD30|HCD45|HCD60|HCD75|HCD90,189.982:172.9556:256.029;189.9822:256.0292:172.9556|189.9821:172.9556:256.0292|172.9557:189.9822:67.0543|172.9558:172.9663:189.9822|172.9666:172.956:67.0543|172.9668:172.956:108.984,189.9822;172.9666;172.9557;108.984;67.0543,CASMI_2016;Eawag,EQ317551|EQ317552|EQ317553|EQ317554|EQ317555|EQ317556,[M-H]-,HCD15|HCD30|HCD45|HCD60|HCD75|HCD90,227.9988:254.0145:144.9616|227.9989:144.9617:254.0146|144.9617:227.9989:186.9723|144.9617:145.9894:146.9858|145.9894:146.9858:144.9616|145.9894:146.9858:171.9859,254.01455;227.9989;186.9723;171.9859;146.9858;145.9894;144.9617,Eawag