NORMAN_ID,NAME,SMILES,NEUTRAL_EXACT_MASS,FORMULA,StdInChI,CAS_RN,PUBCHEM_CID,InChIKey,CHEMSPIDER_ID,DTXSID,Preferable Ionization,MB_Records Positive Ionization,Adduct Positive Ionization,Ionisation type and collision energy Positive Ionization,Fragments Positive Ionization,Simplified_fragments_Positive,Institute Positive Ionization,MB_Records Negative Ionization,Adduct Negative Ionization,Ionisation type and collision energy Negative Ionization,Fragments Negative Ionization,Simplified_fragments_Negative,Institute Negative Ionization
stpQQR286,Pyraclostrobin|methyl N-[2-[[1-(4-chlorophenyl)pyrazol-3-yl]oxymethyl]phenyl]-N-methoxycarbamate,CON(C(=O)OC)C1=C(COC2=NN(C=C2)C2=CC=C(Cl)C=C2)C=CC=C1,387.09858,C19H18ClN3O4,"InChI=1S/C19H18ClN3O4/c1-25-19(24)23(26-2)17-6-4-3-5-14(17)13-27-18-11-12-22(21-18)16-9-7-15(20)8-10-16/h3-12H,13H2,1-2H3",CAS_RN: 175013-18-0,6422843,HZRSNVGNWUDEFX-UHFFFAOYSA-N,4928348,DTXSID7032638,Positive,SM846802;EA277901|EA277902|EA277903|EA277904|EA277905|EA277906|EA277907|EA277908|EA277909|EA277910|EA277911|EA277912|EA277913|EA277914,[M+H]+;[M+H]+,HCD35;CID35|HCD15|HCD30|HCD45|HCD60|HCD75|HCD90|HCD15|HCD30|HCD45|HCD60|HCD75|HCD90|CID35,194.0813:163.0628:164.0706;194.0813:296.0584:356.0793|194.0812:164.0707:296.0583|163.063:164.0707:149.0472|163.0629:149.0472:133.0522|163.0628:133.0522:149.0472|105.0573:133.0522:132.0444|104.0494:120.0443:132.0443|194.0811:164.0705:296.0581|163.0628:164.0705:149.0471|163.0628:149.0471:133.0522|163.0628:133.0522:149.0472|105.0573:133.0522:132.0444|104.0495:132.0444:105.0573|194.0813:296.0584:356.0793,356.0793;296.05835;194.0813;164.0706;163.0628;149.0472;133.0522;132.0444;120.0443;105.0573;104.04945,CASMI_2016;Eawag,NA,NA,NA,NA,NA,NA
stpQQR287,quinmerac|7-chloro-3-methylquinoline-8-carboxylic acid,CC1=CC2=C(N=C1)C(C(O)=O)=C(Cl)C=C2,221.02436,C11H8ClNO2,"InChI=1S/C11H8ClNO2/c1-6-4-7-2-3-8(12)9(11(14)15)10(7)13-5-6/h2-5H,1H3,(H,14,15)",CAS_RN: 90717-03-6,91749,ALZOLUNSQWINIR-UHFFFAOYSA-N,82847,DTXSID1042364,Positive,SM846901;EQ372001|EQ372002|EQ372003|EQ372004|EQ372005|EQ372006|EQ372007|EQ372008|EQ372009,[M+H]+;[M+H]+,HCD35;HCD15|HCD30|HCD45|HCD60|HCD75|HCD90|HCD120|HCD150|HCD180,204.021:222.0316:176.0261;204.021:222.0316:140.049|204.021:222.0316:140.0489|204.0211:222.0317:176.0262|204.0211:176.0262:222.0317|141.0572:204.0211:149.0152|141.0572:149.0153:140.0495|140.0495:141.0572:149.0153|140.0494:113.0385:114.0464|113.0386:88.0307:140.0495,204.02105;176.0262;149.0153;141.0572;140.04945;114.0464;113.03855;88.0307,CASMI_2016;Eawag,NA,NA,NA,NA,NA,NA
stpQQR288,"Thiacloprid amide|[3-[(6-chloropyridin-3-yl)methyl]-1,3-thiazolidin-2-ylidene]urea",NC(=O)N=C1SCCN1CC1=CN=C(Cl)C=C1,270.03421,C10H11ClN4OS,"InChI=1S/C10H11ClN4OS/c11-8-2-1-7(5-13-8)6-15-3-4-17-10(15)14-9(12)16/h1-2,5H,3-4,6H2,(H2,12,16)",CAS_RN: NA,86222983,LEZHOZPJYAQQNU-UHFFFAOYSA-N,34448786,NA,Positive,AU208001|AU208002|AU208003|AU208004|AU208005;SM847002,[M+H]+;[M+H]+,CID10|CID20|CID30|CID40|CID50;HCD35,271.0413:254.0143:228.0346|228.0346:126.0098:254.0143|126.0098:128.0068:228.0346|126.0098:128.0068:127.0131|126.0098:128.0068:127.0131;126.0105:254.0149:228.0356,254.0143;228.0346;128.0068;127.0131;126.0098,Athens_Univ;CASMI_2016,NA,NA,NA,NA,NA,NA
stpQQR289,"Thiamethoxam|(NE)-N-[3-[(2-chloro-1,3-thiazol-5-yl)methyl]-5-methyl-1,3,5-oxadiazinan-4-ylidene]nitramide",CN1COCN(CC2=CN=C(Cl)S2)\C1=N\[N+]([O-])=O,291.01929,C8H10ClN5O3S,"InChI=1S/C8H10ClN5O3S/c1-12-4-17-5-13(8(12)11-14(15)16)3-6-2-10-7(9)18-6/h2H,3-5H2,1H3/b11-8+",CAS_RN: 153719-23-4,5821911,NWWZPOKUUAIXIW-DHZHZOJOSA-N,4712649,NA,Positive,SM847101;EA294101|EA294102|EA294103|EA294104|EA294105|EA294106|EA294107|EA294108|EA294109|EA294110|EA294111|EA294112|EA294113|EA294114,[M+H]+;[M+H]+,HCD35;CID35|HCD15|HCD30|HCD45|HCD60|HCD75|HCD90|HCD15|HCD30|HCD45|HCD60|HCD75|HCD90|CID35,211.0648:131.9669:181.0542;211.0647:210.0571:246.0337|211.065:292.0264:210.057|211.0651:131.9671:181.0543|131.9671:181.0544:211.0651|131.967:181.0542:152.0277|131.967:152.0277:108.0557|131.9669:108.0556:152.0276|211.0647:292.0265:210.0571|211.0646:131.9669:181.0542|131.9668:181.0542:211.0648|131.9668:181.0542:152.0277|131.9668:152.0276:108.0556|131.9669:108.0556:152.0275|211.0646:210.057:246.0335,246.0336;211.0648;210.05705;181.0542;152.02765;131.9669;108.0556,CASMI_2016;Eawag,NA,NA,NA,NA,NA,NA
stpQQR290,"Dichlorvos|2,2-dichloroethenyl dimethyl phosphate",COP(=O)(OC)OC=C(Cl)Cl,219.9459,C4H7Cl2O4P,"InChI=1S/C4H7Cl2O4P/c1-8-11(7,9-2)10-3-4(5)6/h3H,1-2H3",CAS_RN: 62-73-7,3039,OEBRKCOSUFCWJD-UHFFFAOYSA-N,2931,DTXSID5020449,Positive/Negative,SM847202;EQ304701|EQ304702|EQ304703|EQ304704|EQ304705|EQ304706;UF400101|UF400102|UF400103|UF400104,[M+H]+;[M+H]+;[M+H]+,HCD35;HCD15|HCD30|HCD45|HCD60|HCD75|HCD90;HCD55|HCD80|CID35|CID55,127.0154:220.9531:78.9943;220.953:127.0154:144.9815|127.0154:220.9531:144.9815|127.0154:78.9943:220.9531|127.0155:78.9943:112.9998|127.0154:78.9943:112.9998|127.0154:78.9943:112.9998;127.0153:109.0048:78.9942|127.0154:78.9943:109.0048|109.0048:144.9815:127.0154|144.9815:109.0048:127.0154,144.9815;127.0154;112.9998;109.0048;78.9943,CASMI_2016;Eawag;UFZ,EQ304751|EQ304752|EQ304753|EQ304754|EQ304755|EQ304756,[M-H]-,HCD15|HCD30|HCD45|HCD60|HCD75|HCD90,131.0135:89.0244:88.0088|131.0136:89.0244:88.0088|131.0136:89.0244|131.0136:89.0244:160.9767|131.0136:160.9767:89.0244|131.0136:89.0243,160.9767;131.0136;89.0244;88.0088,Eawag
stpQQR291,"Azinphos methyl|Azinphos-methyl|3-(dimethoxyphosphinothioylsulfanylmethyl)-1,2,3-benzotriazin-4-one",COP(=S)(OC)SCN1N=Nc2ccccc2C1=O,317.00577,C10H12N3O3PS2,"InChI=1S/C10H12N3O3PS2/c1-15-17(18,16-2)19-7-13-10(14)8-5-3-4-6-9(8)11-12-13/h3-6H,7H2,1-2H3",CAS_RN: 86-50-0,2268,CJJOSEISRRTUQB-UHFFFAOYSA-N,2181,DTXSID3020122,Positive,SM847302;EQ365501|EQ365502|EQ365503|EQ365504|EQ365505|EQ365506|EQ365507|EQ365508|EQ365509,[M+H]+;[M+H]+,HCD35;HCD15|HCD30|HCD45|HCD60|HCD75|HCD90|HCD120|HCD150|HCD180,142.9927:132.0444:260.9805;132.0445:142.9928:260.9807|142.9928:132.0445:104.0495|142.9928:132.0445:104.0496|142.9928:95.0492:105.0336|95.0493:105.0449:78.9944|95.0493:105.0449:77.0386|51.023:95.0493:77.0386|51.023:50.0152:95.0493|51.023:50.0152:74.0151,260.9806;142.9928;132.0445;105.0449;105.0336;104.04955;95.0493;78.9944;77.0386;74.0151;51.023;50.0152,CASMI_2016;Eawag,NA,NA,NA,NA,NA,NA
stpQQR292,"Hexazinone|3-cyclohexyl-6-(dimethylamino)-1-methyl-1,3,5-triazine-2,4-dione",CN(C)C1=NC(=O)N(C2CCCCC2)C(=O)N1C,252.15863,C12H20N4O2,"InChI=1S/C12H20N4O2/c1-14(2)10-13-11(17)16(12(18)15(10)3)9-7-5-4-6-8-9/h9H,4-8H2,1-3H3",CAS_RN: 51235-04-2,39965,CAWXEEYDBZRFPE-UHFFFAOYSA-N,36542,DTXSID4024145,Positive,SM847401;EQ025601|EQ025602|EQ025603|EQ025604|EQ025605|EQ025606|EQ025607|EQ025608|EQ025609,[M+H]+;[M+H]+,HCD35;HCD15|HCD30|HCD45|HCD60|HCD75|HCD90|HCD120|HCD150|HCD180,171.0876:253.1659:71.0604;253.1659:171.0876:71.0603|171.0876:253.166:71.0603|171.0876:71.0604:85.076|71.0604:171.0877:85.076|71.0604:85.076:171.0877|71.0604:85.076:83.024|71.0604:85.076:58.0652|71.0604:69.0448:85.0761|69.0448:71.0604:55.0291,171.0876;85.076;83.024;71.0604;69.0448;58.0652;55.0291,CASMI_2016;Eawag,NA,NA,NA,NA,NA,NA
stpQQR293,"Pyrazophos|ethyl 2-diethoxyphosphinothioyloxy-5-methylpyrazolo[1,5-a]pyrimidine-6-carboxylate",CCOC(=O)c1cn2nc(OP(=S)(OCC)OCC)cc2nc1C,373.08613,C14H20N3O5PS,"InChI=1S/C14H20N3O5PS/c1-5-19-14(18)11-9-17-12(15-10(11)4)8-13(16-17)22-23(24,20-6-2)21-7-3/h8-9H,5-7H2,1-4H3",CAS_RN: 13457-18-6,26033,JOOMJVFZQRQWKR-UHFFFAOYSA-N,24247,DTXSID7042352,Positive,SM847502;UF402001|UF402002|UF402003|UF402004,[M+H]+;[M+H]+,HCD35;HCD55|HCD80|CID35|CID55,374.0934:222.0872:194.056;194.0561:222.0874:176.0456|194.0561:176.0456:148.0506|346.0627:222.0876:238.0648|346.0625:222.0875:238.0647,346.0626;238.06475;222.08745;194.0561;176.0456;148.0506,CASMI_2016;UFZ,NA,NA,NA,NA,NA,NA
stpQQR294,"Bendiocarb|(2,2-dimethyl-1,3-benzodioxol-4-yl) N-methylcarbamate",CNC(=O)Oc1cccc2OC(C)(C)Oc12,223.08446,C11H13NO4,"InChI=1S/C11H13NO4/c1-11(2)15-8-6-4-5-7(9(8)16-11)14-10(13)12-3/h4-6H,1-3H3,(H,12,13)",CAS_RN: 23370-76-5,2314,XEGGRYVFLWGFHI-UHFFFAOYSA-N,2224,DTXSID9032327,Positive,SM847601;UF402401|UF402402|UF402403|UF402404,[M+H]+;[M+H]+,HCD35;HCD55|HCD80|CID35|CID55,109.0284:167.0703:59.0493;109.0283:81.0334|81.0334:109.0283|167.0702:109.0283:193.0492|167.0702:109.0282:193.0496,193.0494;167.0702;109.0283;81.0334;59.0493,CASMI_2016;UFZ,NA,NA,NA,NA,NA,NA
stpQQR295,Ethion|diethoxyphosphinothioylsulfanylmethylsulfanyl-diethoxy-sulfanylidene-$l^{5}-phosphane,CCOP(=S)(OCC)SCSP(=S)(OCC)OCC,383.98762,C9H22O4P2S4,"InChI=1S/C9H22O4P2S4/c1-5-10-14(16,11-6-2)18-9-19-15(17,12-7-3)13-8-4/h5-9H2,1-4H3",CAS_RN: 563-12-2,3286,RIZMRRKBZQXFOY-UHFFFAOYSA-N,3171,DTXSID2024086,Positive,SM847702;UF402701|UF402702|UF402703|UF402704,[M+H]+;[M+H]+,HCD35;HCD55|HCD80|CID35|CID55,142.9385:199.0011:114.9613;96.9507:142.9385:114.9613|96.9507:114.9613:142.9384|215.0324:199.0012:322.9761|215.0324:199.0011:322.9764,322.97625;215.0324;199.0011;142.9385;114.9613;96.9507,CASMI_2016;UFZ,NA,NA,NA,NA,NA,NA
stpQQR296,"Ethyl azinphos|3-(diethoxyphosphinothioylsulfanylmethyl)-1,2,3-benzotriazin-4-one",CCOP(=S)(OCC)SCN1N=Nc2ccccc2C1=O,345.03707,C12H16N3O3PS2,"InChI=1S/C12H16N3O3PS2/c1-3-17-19(20,18-4-2)21-9-15-12(16)10-7-5-6-8-11(10)13-14-15/h5-8H,3-4,9H2,1-2H3",CAS_RN: 2642-71-9,17531,RQVGAIADHNPSME-UHFFFAOYSA-N,16576,DTXSID5037498,Positive,SM847802;EQ365401|EQ365402|EQ365403|EQ365404|EQ365405|EQ365406|EQ365407|EQ365408|EQ365409,[M+H]+;[M+H]+,HCD35;HCD15|HCD30|HCD45|HCD60|HCD75|HCD90|HCD120|HCD150|HCD180,114.9614:137.0056:132.0444;132.0445:260.9807:232.9493|132.0445:114.9614:137.0057|114.9614:137.0057:132.0445|114.9614:137.0057:95.0492|114.9614:95.0492:109.0108|114.9615:109.0108:95.0492|114.9615:51.023:64.9788|51.023:64.9788:114.9615|51.023:50.0152:64.9788,260.9807;232.9493;137.0057;132.0445;114.9614;109.0108;95.0492;64.9788;51.023;50.0152,CASMI_2016;Eawag,NA,NA,NA,NA,NA,NA
stpQQR297,"Chlorfenvinphos|[(Z)-2-chloro-1-(2,4-dichlorophenyl)ethenyl] diethyl phosphate",CCOP(=O)(OCC)O\C(=C/Cl)c1ccc(Cl)cc1Cl,357.96953,C12H14Cl3O4P,"InChI=1S/C12H14Cl3O4P/c1-3-17-20(16,18-4-2)19-12(8-13)10-6-5-9(14)7-11(10)15/h5-8H,3-4H2,1-2H3/b12-8-",CAS_RN: 470-90-6,5377784,FSAVDKDHPDSCTO-WQLSENKSSA-N,4526760,NA,Positive,SM847901;EQ304102,[M+H]+;[M+H]+,HCD35;HCD30,98.9842:155.0467:127.0155;127.0157:98.9844:204.9377,204.9377;155.0467;127.0156;98.9843,CASMI_2016;Eawag,NA,NA,NA,NA,NA,NA
stpQQR298,Fenthion|dimethoxy-(3-methyl-4-methylsulfanylphenoxy)-sulfanylidene-$l^{5}-phosphane,COP(=S)(OC)Oc1ccc(SC)c(C)c1,278.02002,C10H15O3PS2,"InChI=1S/C10H15O3PS2/c1-8-7-9(5-6-10(8)16-4)13-14(15,11-2)12-3/h5-7H,1-4H3",CAS_RN: 55-38-9,3346,PNVJTZOFSHSLTO-UHFFFAOYSA-N,3229,DTXSID8020620,Positive,AU315501|AU315502|AU315503|AU315504|AU315505;SM848001,[M+H]+;[M+H]+,CID10|CID20|CID30|CID40|CID50;HCD35,279.0272:247.0008:169.013|169.0132:247.0005:138.0488|169.0128:153.0356:124.9812|168.9862:153.0362:169.0131|168.986:121.0099:152.9815;231.024:279.0274:216.0005,247.00065;231.024;216.0005;169.01305;168.9861;153.0359;152.9815;138.0488;124.9812;121.0099,Athens_Univ;CASMI_2016,NA,NA,NA,NA,NA,NA
stpQQR299,Parathion-methyl|dimethoxy-(4-nitrophenoxy)-sulfanylidene-$l^{5}-phosphane,COP(=S)(OC)Oc1ccc(cc1)[N+]([O-])=O,263.00173,C8H10NO5PS,"InChI=1S/C8H10NO5PS/c1-12-15(16,13-2)14-8-5-3-7(4-6-8)9(10)11/h3-6H,1-2H3",CAS_RN: 298-00-0,4130,RLBIQVVOMOPOHC-UHFFFAOYSA-N,3987,DTXSID1020855,Positive,SM848103,[M+H]+,HCD35,264.0092:142.9927:249.9936,249.9936;142.9927,CASMI_2016,NA,NA,NA,NA,NA,NA
stpQQR300,Acetochlor|2-chloro-N-(ethoxymethyl)-N-(2-ethyl-6-methylphenyl)acetamide,CCOCN(C(=O)CCl)c1c(C)cccc1CC,269.11826,C14H20ClNO2,"InChI=1S/C14H20ClNO2/c1-4-12-8-6-7-11(3)14(12)16(10-18-5-2)13(17)9-15/h6-8H,4-5,9-10H2,1-3H3",CAS_RN: 35439-70-4,1988,VTNQPKFIQCLBDU-UHFFFAOYSA-N,1911,DTXSID8023848,Positive,AU322101|AU322102|AU322103|AU322104|AU322105;SM848201;EA010401|EA010402|EA010403|EA010404|EA010405|EA010406|EA010407|EA010408|EA010409|EA010410|EA010411|EA010412|EA010413|EA010414,[M+H]+;[M+H]+;[M+H]+,CID10|CID20|CID30|CID40|CID50;HCD35;CID35|HCD15|HCD30|HCD45|HCD60|HCD75|HCD90|HCD15|HCD30|HCD45|HCD60|HCD75|HCD90|CID35,224.0828:226.0801:270.125|148.1111:224.0828:226.0801|148.1112:133.0878:132.0799|133.0878:148.1111:134.0909|133.0876:134.091:148.1115;224.0837:148.1121:59.0493;224.0838:148.1119:210.0681|224.0838:270.1255:148.1121|224.0835:148.112:194.0728|148.1121:224.0836:149.0959|148.112:133.0885:149.0962|133.0885:148.112:132.0807|133.0886:132.0806:148.112|224.0836:270.1254:148.112|224.0836:148.1121:210.0679|148.112:224.0837:149.096|148.112:133.0885:149.0961|133.0885:148.112:132.081|133.0885:132.0808:148.112|224.0837:148.112:210.068,226.0801;224.0836;210.068;194.0728;149.09605;148.112;134.09095;133.0885;132.0807;59.0493,Athens_Univ;CASMI_2016;Eawag,NA,NA,NA,NA,NA,NA
stpQQR301,"Propanil|N-(3,4-dichlorophenyl)propanamide",CCC(=O)Nc1ccc(Cl)c(Cl)c1,217.00612,C9H9Cl2NO,"InChI=1S/C9H9Cl2NO/c1-2-9(13)12-6-3-4-7(10)8(11)5-6/h3-5H,2H2,1H3,(H,12,13)",CAS_RN: 709-98-8,4933,LFULEKSKNZEWOE-UHFFFAOYSA-N,4764,DTXSID8022111,Positive/Negative,SM848402;EQ305101|EQ305102|EQ305103|EQ305104|EQ305105|EQ305106,[M+H]+;[M+H]+,HCD35;HCD15|HCD30|HCD45|HCD60|HCD75|HCD90,161.9871:218.0134:127.0183;218.0135:161.9872:127.0182|161.9872:218.0135:127.0183|161.9873:127.0184:218.0135|127.0184:161.9872:57.0336|127.0184:161.9873:57.0336|127.0184:161.9872:57.0336,161.9872;127.0184;57.0336,CASMI_2016;Eawag,SM848453;EQ305151|EQ305152|EQ305153|EQ305154|EQ305155|EQ305156,[M-H]-;[M-H]-,HCD35;HCD15|HCD30|HCD45|HCD60|HCD75|HCD90,215.9987:159.9726:123.9954;215.9987:159.9726:160.9566|215.9987:159.9726:123.9958|159.9726:215.9987:123.9959|159.9726:215.9988:123.9959|159.9726:123.9959:215.9989|159.9726:123.9959:88.0193,215.9987;160.9566;159.9726;123.9959;88.0193,CASMI_2016;Eawag
stpQQR302,"Procymidone|3-(3,5-dichlorophenyl)-1,5-dimethyl-3-azabicyclo[3.1.0]hexane-2,4-dione",CC12CC1(C)C(=O)N(C2=O)c1cc(Cl)cc(Cl)c1,283.01668,C13H11Cl2NO2,"InChI=1S/C13H11Cl2NO2/c1-12-6-13(12,2)11(18)16(10(12)17)9-4-7(14)3-8(15)5-9/h3-5H,6H2,1-2H3",CAS_RN: 60120-20-9,36242,QXJKBPAVAHBARF-UHFFFAOYSA-N,33326,DTXSID9033923,Positive/Negative,SM848503;EQ310201|EQ310202|EQ310203|EQ310204|EQ310205|EQ310206,[M+H]+;[M+H]+,HCD35;HCD15|HCD30|HCD45|HCD60|HCD75|HCD90,284.0242:256.0291:67.0544;284.0239:256.029:113.0597|256.0291:284.0239:95.0491|256.029:95.0491:67.0542|67.0542:95.0491:185.9872|67.0542:238.0185:185.9872|67.0542:238.0185:172.9668,256.02905;238.0185;185.9872;172.9668;113.0597;95.0491;67.0542,CASMI_2016;Eawag,SM848553,[M-H]-,HCD35,282.0093:254.0148:159.9725,282.0093;254.0148;159.9725,CASMI_2016
stpQQR303,Carbaryl|naphthalen-1-yl N-methylcarbamate,CNC(=O)Oc1cccc2ccccc12,201.07898,C12H11NO2,"InChI=1S/C12H11NO2/c1-13-12(14)15-11-8-4-6-9-5-2-3-7-10(9)11/h2-8H,1H3,(H,13,14)",CAS_RN: 63-25-2,6129,CVXBEEMKQHEXEN-UHFFFAOYSA-N,5899,DTXSID9020247,Positive/Negative,SM848601;EQ303801|EQ303802|EQ303803|EQ303804|EQ303805|EQ303806,[M+H]+;[M+H]+,HCD35;HCD15|HCD30|HCD45|HCD60|HCD75|HCD90,145.0647:117.0699:155.0603;145.0649:117.0698:58.0288|145.0649:117.0698:155.0603|145.0647:117.0697:155.0601|145.0649:117.0698:155.0603|145.0648:117.0698:155.0603|145.0648:117.0697:155.0602,155.0603;145.0648;117.0698;58.0288,CASMI_2016;Eawag,EQ303851|EQ303852|EQ303853|EQ303854|EQ303855|EQ303856,[M-H]-,HCD15|HCD30|HCD45|HCD60|HCD75|HCD90,200.0717:143.0501:182.0614|143.0502:200.0717:182.0617|143.0502:200.0718:182.0613|143.0502:168.0455:200.0716|143.0502:168.0455:115.0553|143.0502:168.0455:115.0554,200.0717;182.0614;168.0455;143.0502;115.05535,Eawag
stpQQR304,"Flufenoxuron|N-[[4-[2-chloro-4-(trifluoromethyl)phenoxy]-2-fluorophenyl]carbamoyl]-2,6-difluorobenzamide",FC1=CC(OC2=CC=C(C=C2Cl)C(F)(F)F)=CC=C1NC(=O)NC(=O)C1=C(F)C=CC=C1F,488.03624,C21H11ClF6N2O3,"InChI=1S/C21H11ClF6N2O3/c22-12-8-10(21(26,27)28)4-7-17(12)33-11-5-6-16(15(25)9-11)29-20(32)30-19(31)18-13(23)2-1-3-14(18)24/h1-9H,(H2,29,30,31,32)",CAS_RN: 101463-69-8,91766,RYLHNOVXKPXDIP-UHFFFAOYSA-N,82863,DTXSID1041978,Positive/Negative,SM848701,[M+H]+,HCD35,158.0412:141.0146:489.0439,158.0412;141.0146,CASMI_2016,SM848751,[M-H]-,HCD35,156.0267:487.0291:304.0158,487.0291;304.0158;156.0267,CASMI_2016
stpQQR305,"Triallate|S-(2,3,3-trichloroprop-2-enyl) N,N-di(propan-2-yl)carbamothioate",CC(C)N(C(C)C)C(=O)SCC(Cl)=C(Cl)Cl,303.00182,C10H16Cl3NOS,"InChI=1S/C10H16Cl3NOS/c1-6(2)14(7(3)4)10(15)16-5-8(11)9(12)13/h6-7H,5H2,1-4H3",CAS_RN: 2303-17-5,5543,MWBPRDONLNQCFV-UHFFFAOYSA-N,5342,DTXSID5024344,Positive,SM848803;EQ372501|EQ372502|EQ372503|EQ372504|EQ372505|EQ372506|EQ372507|EQ372508|EQ372509,[M+H]+;[M+H]+,HCD35;HCD15|HCD30|HCD45|HCD60|HCD75|HCD90|HCD120|HCD150|HCD180,304.0091:142.9216:86.06;304.0089:86.06:128.1069|86.06:142.9217:304.0091|142.9217:86.06:140.9327|142.9217:82.9449:140.9327|142.9217:82.9449:58.0651|82.9449:142.9217:58.0651|82.9449:142.9217:58.0651|82.9449:106.945:60.984|82.945:106.945:72.9839,142.9217;140.9327;128.1069;106.945;86.06;82.9449;72.9839;60.984;58.0651,CASMI_2016;Eawag,NA,NA,NA,NA,NA,NA
stpQQR306,"Ioperamide|4-[4-(4-chlorophenyl)-4-hydroxypiperidin-1-yl]-N,N-dimethyl-2,2-diphenylbutanamide",CN(C)C(=O)C(CCN1CCC(O)(CC1)c1ccc(Cl)cc1)(c1ccccc1)c1ccccc1,476.22306,C29H33ClN2O2,"InChI=1S/C29H33ClN2O2/c1-31(2)27(33)29(24-9-5-3-6-10-24,25-11-7-4-8-12-25)19-22-32-20-17-28(34,18-21-32)23-13-15-26(30)16-14-23/h3-16,34H,17-22H2,1-2H3",CAS_RN: 53179-11-6,3955,RDOIQAHITMMDAJ-UHFFFAOYSA-N,3818,DTXSID6045165,Positive,SM848903,[M+H]+,HCD35,266.1539:477.2306:210.1277,266.1539;210.1277,CASMI_2016,NA,NA,NA,NA,NA,NA
stpQQR307,"Promethazin|N,N-dimethyl-1-phenothiazin-10-ylpropan-2-amine",CC(CN1C2=C(SC3=C1C=CC=C3)C=CC=C2)N(C)C,284.13472,C17H20N2S,"InChI=1S/C17H20N2S/c1-13(18(2)3)12-19-14-8-4-6-10-16(14)20-17-11-7-5-9-15(17)19/h4-11,13H,12H2,1-3H3",CAS_RN: 60-87-7,4927,PWWVAXIEGOYWEE-UHFFFAOYSA-N,4758,DTXSID7023518,Positive,SM849001,[M+H]+,HCD35,86.0964:285.142:198.0372,198.0372;86.0964,CASMI_2016,NA,NA,NA,NA,NA,NA
stpQQR308,Bifonazol|Bifonazole|1-[phenyl-(4-phenylphenyl)methyl]imidazole,C1=CN(C=N1)C(C1=CC=CC=C1)C1=CC=C(C=C1)C1=CC=CC=C1,310.147,C22H18N2,"InChI=1S/C22H18N2/c1-3-7-18(8-4-1)19-11-13-21(14-12-19)22(24-16-15-23-17-24)20-9-5-2-6-10-20/h1-17,22H",CAS_RN: 60628-96-8,2378,OCAPBUJLXMYKEJ-UHFFFAOYSA-N,2287,DTXSID9045631,Positive,SM849101,[M+H]+,HCD35,243.1169:165.0699:91.0542,243.1169;165.0699;91.0542,CASMI_2016,NA,NA,NA,NA,NA,NA
stpQQR309,"Ambroxol|4-[(2-amino-3,5-dibromophenyl)methylamino]cyclohexan-1-ol",NC1=C(Br)C=C(Br)C=C1CNC1CCC(O)CC1,375.97859,C13H18Br2N2O,"InChI=1S/C13H18Br2N2O/c14-9-5-8(13(16)12(15)6-9)7-17-10-1-3-11(18)4-2-10/h5-6,10-11,17-18H,1-4,7,16H2",CAS_RN: 15942-05-9,2132,JBDGDEWWOUBZPM-UHFFFAOYSA-N,2047,NA,Positive,SM849201,[M+H]+,HCD35,261.8863:376.9863:116.1071,261.8863;116.1071,CASMI_2016,NA,NA,NA,NA,NA,NA
stpQQR310,Ebastin|4-(4-benzhydryloxypiperidin-1-yl)-1-(4-tert-butylphenyl)butan-1-one,CC(C)(C)C1=CC=C(C=C1)C(=O)CCCN1CCC(CC1)OC(C1=CC=CC=C1)C1=CC=CC=C1,469.29808,C32H39NO2,"InChI=1S/C32H39NO2/c1-32(2,3)28-18-16-25(17-19-28)30(34)15-10-22-33-23-20-29(21-24-33)35-31(26-11-6-4-7-12-26)27-13-8-5-9-14-27/h4-9,11-14,16-19,29,31H,10,15,20-24H2,1-3H3",CAS_RN: 90729-43-4,3191,MJJALKDDGIKVBE-UHFFFAOYSA-N,3079,DTXSID6046472,Positive,SM849302,[M+H]+,HCD35,167.0855:470.3057:203.1431,203.1431;167.0855,CASMI_2016,NA,NA,NA,NA,NA,NA
stpQQR311,Melperon|1-(4-fluorophenyl)-4-(4-methylpiperidin-1-yl)butan-1-one,CC1CCN(CCCC(=O)C2=CC=C(F)C=C2)CC1,263.16854,C16H22FNO,"InChI=1S/C16H22FNO/c1-13-8-11-18(12-9-13)10-2-3-16(19)14-4-6-15(17)7-5-14/h4-7,13H,2-3,8-12H2,1H3",CAS_RN: 3575-80-2,15387,DKMFBWQBDIGMHM-UHFFFAOYSA-N,14646,DTXSID0023298,Positive,SM849401,[M+H]+,HCD35,165.0711:264.1759:123.0241,165.0711;123.0241,CASMI_2016,NA,NA,NA,NA,NA,NA