NORMAN_ID,NAME,SMILES,NEUTRAL_EXACT_MASS,FORMULA,StdInChI,CAS_RN,PUBCHEM_CID,InChIKey,CHEMSPIDER_ID,DTXSID,Preferable Ionization,MB_Records Positive Ionization,Adduct Positive Ionization,Ionisation type and collision energy Positive Ionization,Fragments Positive Ionization,Simplified_fragments_Positive,Institute Positive Ionization,MB_Records Negative Ionization,Adduct Negative Ionization,Ionisation type and collision energy Negative Ionization,Fragments Negative Ionization,Simplified_fragments_Negative,Institute Negative Ionization
stpQQR336,"Clopidogrel|methyl 2-(2-chlorophenyl)-2-(6,7-dihydro-4H-thieno[3,2-c]pyridin-5-yl)acetate",COC(=O)C(N1CCc2sccc2C1)c1ccccc1Cl,321.05903,C16H16ClNO2S,"InChI=1S/C16H16ClNO2S/c1-20-16(19)15(12-4-2-3-5-13(12)17)18-8-6-14-11(10-18)7-9-21-14/h2-5,7,9,15H,6,8,10H2,1H3",CAS_RN: 94188-84-8,2806,GKTWGGQPFAXNFI-UHFFFAOYSA-N,2704,NA,Positive,SM853101,[M+H]+,HCD35,322.0664:212.0473:184.0524,212.0473;184.0524,CASMI_2016,NA,NA,NA,NA,NA,NA
stpQQR337,"Anastrozole|2-[3-(2-cyanopropan-2-yl)-5-(1,2,4-triazol-1-ylmethyl)phenyl]-2-methylpropanenitrile",CC(C)(C#N)c1cc(Cn2cncn2)cc(c1)C(C)(C)C#N,293.16405,C17H19N5,"InChI=1S/C17H19N5/c1-16(2,9-18)14-5-13(8-22-12-20-11-21-22)6-15(7-14)17(3,4)10-19/h5-7,11-12H,8H2,1-4H3",CAS_RN: 120511-73-1,2187,YBBLVLTVTVSKRW-UHFFFAOYSA-N,2102,DTXSID9022607,Positive,SM853202,[M+H]+,HCD35,225.1386:294.1714:210.1151,225.1386;210.1151,CASMI_2016,NA,NA,NA,NA,NA,NA
stpQQR338,Flumequine,CC1CCc2cc(F)cc3C(=O)C(=CN1c23)C(O)=O,261.08012,C14H12FNO3,"InChI=1S/C14H12FNO3/c1-7-2-3-8-4-9(15)5-10-12(8)16(7)6-11(13(10)17)14(18)19/h4-7H,2-3H2,1H3,(H,18,19)",CAS_RN: 42835-25-6,3374,DPSPPJIUMHPXMA-UHFFFAOYSA-N,3257,DTXSID5045623,Positive,AU103001|AU103004|AU103005;SM853301;EQ364201|EQ364202|EQ364203|EQ364204|EQ364205|EQ364206|EQ364207|EQ364208|EQ364209,[M+H]+;[M+H]+;[M+H]+,CID20.2-30.4|CID40|CID50;HCD35;HCD15|HCD30|HCD45|HCD60|HCD75|HCD90|HCD120|HCD150|HCD180,262.0896:244.078:263.0965|202.0296:220.04:238.0508|174.0344:202.0294:220.0401;262.0874:244.0768:220.0404;262.0874:244.0769|262.0873:244.0768:276.1029|244.0768:262.0873:202.0298|244.0768:262.0874:202.0298|202.0298:220.0405:244.0769|220.0405:202.0298:174.035|154.04:126.0338:146.0401|99.0229:100.0181:75.0229|99.0229:100.0181:98.0151,244.0768;238.0508;220.0404;202.0298;174.0347;154.04;146.0401;126.0338;100.0181;99.0229;98.0151;75.0229,Athens_Univ;CASMI_2016;Eawag,NA,NA,NA,NA,NA,NA
stpQQR339,Mebendazole|methyl N-(6-benzoyl-1H-benzimidazol-2-yl)carbamate,COC(=O)Nc1nc2ccc(cc2[nH]1)C(=O)c1ccccc1,295.09569,C16H13N3O3,"InChI=1S/C16H13N3O3/c1-22-16(21)19-15-17-12-8-7-11(9-13(12)18-15)14(20)10-5-3-2-4-6-10/h2-9H,1H3,(H2,17,18,19,21)",CAS_RN: 31431-39-7,4030,OPXLLQIJSORQAM-UHFFFAOYSA-N,3890,DTXSID4040682,Positive/Negative,AU106401|AU106402|AU106403|AU106404|AU106405;SM853401;EQ366801|EQ366802|EQ366803|EQ366804|EQ366805|EQ366806|EQ366807|EQ366808|EQ366809,[M+H]+;[M+H]+;[M+H]+,CID10|CID20|CID30|CID40|CID50;HCD35;HCD15|HCD30|HCD45|HCD60|HCD75|HCD90|HCD120|HCD150|HCD180,296.103:297.1063:264.0768|264.0767:296.1031:265.0806|264.0765:265.0798:296.1045|264.0775:265.0804:186.0295|264.0777:159.0424:160.0496;264.0768:296.103:105.0335;296.1031:264.0767|264.0769:296.1031:105.0331|264.0769:105.0336:296.1033|264.0769:105.0336:95.0492|105.0336:264.077:95.0492|105.0336:95.0492:105.0448|95.0492:105.0448:77.0386|105.0448:95.0492:77.0386|51.023:50.0152:77.026,265.0804;264.0769;186.0295;160.0496;159.0424;105.0448;105.0336;95.0492;77.0386;77.026;51.023;50.0152,Athens_Univ;CASMI_2016;Eawag,SM853455;EQ366851|EQ366852|EQ366853|EQ366854|EQ366855|EQ366856|EQ366857|EQ366858|EQ366859,[M-H]-;[M-H]-,HCD35;HCD15|HCD30|HCD45|HCD60|HCD75|HCD90|HCD120|HCD150|HCD180,262.0623:294.0886:157.0281;262.0626:294.089|262.0625:294.0889|262.0625:157.0275|262.0626:157.0283:133.0284|262.0627:157.0284:133.0283|157.0284:133.0284:129.0335|129.0335:157.0284:115.0304|115.0304:129.0335:64.0194|64.0194:115.0304:88.0194,294.0889;262.06255;157.02835;133.0284;129.0335;115.0304;88.0194;64.0194,CASMI_2016;Eawag
stpQQR340,Albendazole|methyl N-(6-propylsulfanyl-1H-benzimidazol-2-yl)carbamate,CCCSc1ccc2nc(NC(=O)OC)[nH]c2c1,265.0885,C12H15N3O2S,"InChI=1S/C12H15N3O2S/c1-3-6-18-8-4-5-9-10(7-8)14-11(13-9)15-12(16)17-2/h4-5,7H,3,6H2,1-2H3,(H2,13,14,15,16)",CAS_RN: 54965-21-8,2082,HXHWSAZORRCQMX-UHFFFAOYSA-N,1998,DTXSID0022563,Positive/Negative,AU105801|AU105804|AU105805;SM853502;EQ358001|EQ358002|EQ358003|EQ358004|EQ358005|EQ358006|EQ358007|EQ358008|EQ358009,[M+H]+;[M+H]+;[M+H]+,CID20.4-30.6|CID40|CID50;HCD35;HCD15|HCD30|HCD45|HCD60|HCD75|HCD90|HCD120|HCD150|HCD180,234.0709:266.0973:191.0156|191.0147:192.0217:159.0423|191.0145:159.042:163.0192;234.0694:266.0957:191.0146;266.0958:234.0697|234.0696:266.0958:191.0139|234.0696:192.0226:191.0148|234.0697:191.0149:192.0226|191.0148:159.0428:192.0226|191.0148:159.0428:163.0199|159.0428:131.0479:136.0091|104.037:77.026:92.037|77.026:92.037:76.0182,234.06965;192.0226;191.0148;163.01955;159.0428;136.0091;131.0479;104.037;92.037;77.026;76.0182,Athens_Univ;CASMI_2016;Eawag,SM853555;EQ358051|EQ358052|EQ358053|EQ358054|EQ358055|EQ358056|EQ358057|EQ358058|EQ358059,[M-H]-;[M-H]-,HCD35;HCD15|HCD30|HCD45|HCD60|HCD75|HCD90|HCD120|HCD150|HCD180,232.0551:188.9999;232.0554:264.0817:221.0268|232.0553:189.0006:221.0268|189.0005:232.0553:221.0268|189.0005:161.0056:159.9977|189.0005:161.0056:159.9977|189.0006:159.9978:57.9758|57.9758:159.9978:81.9758|57.9758:81.9758:159.9977|57.9758:81.9758:65.0146,264.0817;232.0553;221.0268;189.0005;161.0056;159.9977;81.9758;65.0146;57.9758,CASMI_2016;Eawag
stpQQR341,Raloxifene|[6-hydroxy-2-(4-hydroxyphenyl)-1-benzothiophen-3-yl]-[4-(2-piperidin-1-ylethoxy)phenyl]methanone,Oc1ccc(cc1)-c1sc2cc(O)ccc2c1C(=O)c1ccc(OCCN2CCCCC2)cc1,473.16608,C28H27NO4S,"InChI=1S/C28H27NO4S/c30-21-8-4-20(5-9-21)28-26(24-13-10-22(31)18-25(24)34-28)27(32)19-6-11-23(12-7-19)33-17-16-29-14-2-1-3-15-29/h4-13,18,30-31H,1-3,14-17H2",CAS_RN: 82640-04-8,5035,GZUITABIAKMVPG-UHFFFAOYSA-N,4859,DTXSID3023550,Positive/Negative,SM853603,[M+H]+,HCD35,474.1736:112.1121:84.0808,112.1121;84.0808,CASMI_2016,SM853653,[M-H]-,HCD35,472.1588:360.0462:361.054,472.1588;361.054;360.0462,CASMI_2016
stpQQR342,"Orlistat|[(2S)-1-[(2S,3S)-3-hexyl-4-oxooxetan-2-yl]tridecan-2-yl] (2S)-2-formamido-4-methylpentanoate",CCCCCCCCCCC[C@@H](C[C@@H]1OC(=O)[C@H]1CCCCCC)OC(=O)[C@H](CC(C)C)NC=O,495.39237,C29H53NO5,"InChI=1S/C29H53NO5/c1-5-7-9-11-12-13-14-15-16-18-24(34-29(33)26(30-22-31)20-23(3)4)21-27-25(28(32)35-27)19-17-10-8-6-2/h22-27H,5-21H2,1-4H3,(H,30,31)/t24-,25-,26-,27-/m0/s1",CAS_RN: 96829-58-2,3034010,AHLBNYSZXLDEJQ-FWEHEUNISA-N,2298564,DTXSID8023395,Positive,SM854101,[M+H]+,HCD35,319.2998:160.0969:114.0914,319.2998;160.0969;114.0914,CASMI_2016,NA,NA,NA,NA,NA,NA
stpQQR343,"Sulfadimethoxine|4-amino-N-(2,6-dimethoxypyrimidin-4-yl)benzenesulfonamide",COC1=CC(NS(=O)(=O)C2=CC=C(N)C=C2)=NC(OC)=N1,310.07358,C12H14N4O4S,"InChI=1S/C12H14N4O4S/c1-19-11-7-10(14-12(15-11)20-2)16-21(17,18)9-5-3-8(13)4-6-9/h3-7H,13H2,1-2H3,(H,14,15,16)",CAS_RN: 122-11-2,5323,ZZORFUFYDOWNEF-UHFFFAOYSA-N,5132,DTXSID1023607,Positive/Negative,AU100902|AU100903|AU100904|AU100905;SM854202;EA018301|EA018302|EA018303|EA018304|EA018305|EA018306|EA018307|EA018308|EA018309|EA018310|EA018311|EA018312|EA018313|EA018314,[M+H]+;[M+H]+;[M+H]+,CID20|CID30|CID40|CID50;HCD35;CID35|HCD15|HCD30|HCD45|HCD60|HCD75|HCD90|HCD15|HCD30|HCD45|HCD60|HCD75|HCD90|CID35,156.0107:311.0811:156.0763|156.0105:156.0762:154.0604|154.0604:140.045:156.0761|154.0606:141.0521:140.045;311.0808:156.0767:156.0113;245.1032:156.0768:156.0114|311.0811:156.0117|311.0809:156.0768:156.0114|156.0768:156.0113:108.0444|156.0768:108.0444:92.0495|108.0444:92.0495:156.0767|108.0444:92.0495:65.0386|311.0808:156.0773:108.0443|311.0807:156.0766:156.0113|156.0767:156.0113:108.0443|156.0767:108.0443:92.0494|108.0444:92.0494:156.0766|92.0494:108.0443:65.0385|156.0767:245.1031:156.0113,245.10315;156.0767;156.0113;154.0604;141.0521;140.045;108.0444;92.04945;65.03855,Athens_Univ;CASMI_2016;Eawag,SM854253;EA018351|EA018352|EA018353|EA018354|EA018355|EA018356|EA018357|EA018358|EA018359|EA018360|EA018361|EA018362|EA018363|EA018364,[M-H]-;[M-H]-,HCD35;CID35|HCD15|HCD30|HCD45|HCD60|HCD75|HCD90|HCD15|HCD30|HCD45|HCD60|HCD75|HCD90|CID35,309.0664:154.0621:213.079;195.0234:230.0807:229.0728|309.0664|309.066:230.0804:195.0234|309.0662:66.0098:230.0807|66.0098:122.0358:154.062|66.0098:122.036:139.0385|66.0099:122.0359:139.0386|309.0661|309.066:230.0804|309.0661:66.0098:230.081|66.0098:122.0359:154.062|66.0098:122.0359:139.0385|66.0098:139.0384:131.0611|195.0232:230.0805:215.0572,309.0661;230.0806;229.0728;215.0572;213.079;195.0234;154.062;139.0385;131.0611;122.0359;66.0098,CASMI_2016;Eawag
stpQQR344,4-Fluorobenzoylpropionic acid|3-(4-Fluorobenzoyl)propionic acid|4-(4-fluorophenyl)-4-oxobutanoic acid,OC(=O)CCC(=O)C1=CC=C(F)C=C1,196.05357,C10H9FO3,"InChI=1S/C10H9FO3/c11-8-3-1-7(2-4-8)9(12)5-6-10(13)14/h1-4H,5-6H2,(H,13,14)",CAS_RN: 366-77-8,101359,WUYWHIAAQYQKPP-UHFFFAOYSA-N,91589,DTXSID30190084,Positive/Negative,SM854306,[M+H]+,HCD35,179.0503:123.0241:151.0554,179.0503;151.0554;123.0241,CASMI_2016,SM854355,[M-H]-,HCD35,151.0565:149.0407:195.0465,195.0465;151.0565;149.0407,CASMI_2016
stpQQR345,Naproxen|2-(6-methoxynaphthalen-2-yl)propanoic acid,COc1ccc2cc(ccc2c1)C(C)C(O)=O,230.09429,C14H14O3,"InChI=1S/C14H14O3/c1-9(14(15)16)10-3-4-12-8-13(17-2)6-5-11(12)7-10/h3-9H,1-2H3,(H,15,16)",CAS_RN: 26159-31-9,1302,CMWTZPSULFXXJA-UHFFFAOYSA-N,1262,NA,Positive/Negative,SM854403;EA020201|EA020202|EA020203|EA020204|EA020205|EA020206|EA020207|EA020208|EA020209|EA020210|EA020211|EA020212|EA020213|EA020214;UF406601|UF406602|UF406603|UF406604,[M+H]+;[M+H]+;[M+H]+,HCD35;CID35|HCD15|HCD30|HCD45|HCD60|HCD75|HCD90|HCD15|HCD30|HCD45|HCD60|HCD75|HCD90|CID35;HCD55|HCD80|CID35|CID55,185.096:170.0725:231.1016;185.096|231.1016:185.0961|185.096:231.101|185.096:170.0725:158.0729|185.096:170.0725:154.078|170.0724:185.0961:153.0699|170.0727:154.0775:153.0699|231.1015:185.096|185.096:231.1014|185.096:158.0726:170.0725|185.0959:170.0724:153.0698|170.0724:185.0961:154.0775|170.0725:153.0698:141.0699|185.096;185.0963:170.0728:158.0728|170.0728:154.0779:153.0701|185.0963:189.1024:201.1018|185.0962:189.1024:201.1018,201.1018;189.1024;185.096;170.0725;158.0728;154.0777;153.0699;141.0699,CASMI_2016;Eawag;UFZ,EA020251|EA020264,[M-H]-,CID35|CID35,185.0974|185.0963,185.09685,Eawag
stpQQR346,Phenazone,CN1N(C(=O)C=C1C)c1ccccc1,188.09496,C11H12N2O,"InChI=1S/C11H12N2O/c1-9-8-11(14)13(12(9)2)10-6-4-3-5-7-10/h3-8H,1-2H3",CAS_RN: 60-80-0,2206,VEQOALNAAJBPNY-UHFFFAOYSA-N,2121,DTXSID6021117,Positive,SM854601;EA033801|EA033802|EA033803|EA033804|EA033805|EA033806|EA033807|EA033808|EA033809|EA033810|EA033811|EA033812|EA033813|EA033814;UF406801|UF406802|UF406803|UF406804|UF406835|UF406836,[M+H]+;[M+H]+;[M+H]+,HCD35;CID35|HCD15|HCD30|HCD45|HCD60|HCD75|HCD90|HCD15|HCD30|HCD45|HCD60|HCD75|HCD90|CID35;HCD55|HCD80|CID35|CID55|CID35|CID55,189.1022:147.0916:56.0496;189.1022:131.0729:161.1073|189.1025|189.1024:161.1073|189.1027:161.1074:147.0918|189.1025:147.0916:161.1073|189.1029:104.0496:147.0918|106.0651:56.0494:104.0495|189.1023|189.1022:161.1075:174.0784|189.1023:161.1073:147.0917|189.1023:147.0917:161.1073|189.1022:104.0495:147.0917|106.0652:104.0495:56.0495|189.1022:131.0729:161.1073;189.1025:147.092:161.1076|104.0496:189.1024:106.0652|189.1024:131.0731:161.1075|131.073:161.1074:144.0809|142.0609:155.0473:183.0871|142.0611:155.0472:183.0876,183.08735;174.0784;161.1073;155.04725;147.0917;144.0809;142.061;131.07295;106.0652;104.0495;56.0495,CASMI_2016;Eawag;UFZ,NA,NA,NA,NA,NA,NA
stpQQR347,Clofibric acid|2-(4-chlorophenoxy)-2-methylpropanoic acid,CC(C)(Oc1ccc(Cl)cc1)C(O)=O,214.03967,C10H11ClO3,"InChI=1S/C10H11ClO3/c1-10(2,9(12)13)14-8-5-3-7(11)4-6-8/h3-6H,1-2H3,(H,12,13)",CAS_RN: 882-09-7,2797,TXCGAZHTZHNUAI-UHFFFAOYSA-N,2695,DTXSID1040661,Positive/Negative,EA020401|EA020403|EA020404|EA020409|EA020411|EA020413,[M+H]+,CID35|HCD30|HCD45|HCD30|HCD60|HCD90,159.0308:169.0171:77.0384|159.0309:77.0385:105.0448|77.0387:105.045:95.0496|159.0301:77.0384:169.0171|105.0447:53.0385:77.0385|77.0384:53.0386:105.0446,169.0171;159.0308;105.04475;95.0496;77.03845;53.03855,Eawag,SM854751;EA020451|EA020452|EA020453|EA020454|EA020455|EA020456|EA020457|EA020458|EA020459|EA020460|EA020461|EA020462|EA020463,[M-H]-;[M-H]-,HCD35;CID35|HCD15|HCD30|HCD45|HCD60|HCD75|HCD90|HCD15|HCD30|HCD45|HCD60|HCD75|HCD90,126.9953:213.0325;126.9959:85.0297:213.0447|126.9955:213.0324:85.0296|126.9959:85.0297|126.9955:85.0296:213.0436|126.9957:85.0293|126.9957|126.9955|126.9956:213.032:85.0295|126.9957:85.0295|126.9959|126.9957:85.0296|126.9958|126.9954,213.0324;126.9957;85.0296,CASMI_2016;Eawag
stpQQR348,Bezafibrate|2-[4-[2-[(4-chlorobenzoyl)amino]ethyl]phenoxy]-2-methylpropanoic acid,CC(C)(Oc1ccc(CCNC(=O)c2ccc(Cl)cc2)cc1)C(O)=O,361.10809,C19H20ClNO4,"InChI=1S/C19H20ClNO4/c1-19(2,18(23)24)25-16-9-3-13(4-10-16)11-12-21-17(22)14-5-7-15(20)8-6-14/h3-10H,11-12H2,1-2H3,(H,21,22)(H,23,24)",CAS_RN: 41859-67-0,39042,IIBYAHWJQTYFKB-UHFFFAOYSA-N,35728,DTXSID3029869,Positive/Negative,SM854802;EA020901|EA020902|EA020903|EA020904|EA020905|EA020906|EA020907|EA020908|EA020909|EA020910|EA020911|EA020912|EA020913|EA020914,[M+H]+;[M+H]+,HCD35;CID35|HCD15|HCD30|HCD45|HCD60|HCD75|HCD90|HCD15|HCD30|HCD45|HCD60|HCD75|HCD90|CID35,138.9944:121.0647:316.1098;316.1096:276.0782:344.1042|362.115:316.1094:276.0784|138.9945:316.1096:276.0785|138.9944:121.0647:161.0958|138.9944:121.0647:93.0698|138.9944:121.0647:139.0058|139.0055:138.9944:121.0646|362.1149:316.1094:276.0782|138.9944:316.1096:276.0783|138.9944:121.0647:161.0959|138.9943:121.0646:139.0055|138.9944:121.0647:139.0056|139.0056:138.9944:121.0647|316.1097:276.0783:344.1043,344.10425;316.1096;276.0783;161.09585;139.0056;138.9944;121.0647;93.0698,CASMI_2016;Eawag,SM854852;EA020951|EA020952|EA020953|EA020954|EA020955|EA020956|EA020958|EA020959|EA020960|EA020961|EA020962|EA020964;UF406951|UF406952|UF406953|UF406954,[M-H]-;[M-H]-;[M-H]-,HCD35;CID35|HCD15|HCD30|HCD45|HCD60|HCD75|HCD15|HCD30|HCD45|HCD60|HCD75|CID35;HCD55|HCD80|CID35|CID55,274.064:154.0065:360.1008;274.0642:316.1117|360.1014:274.0641:85.0295|274.0643:85.0296:154.0065|154.0068:274.0645:85.0297|154.0066:85.0295:274.0629|154.0065:85.0293|360.1008:274.064:85.0295|274.0642:85.0295:154.0066|274.064:154.0066:85.0295|154.0066:85.0294:274.0624|154.0067:85.0295|274.0641:316.1109;274.0638:197.9608:188.1089|274.064:197.9591|274.064:316.111:197.9601|274.0639:316.111,360.1008;316.111;274.064;197.9601;188.1089;154.0066;85.0295,CASMI_2016;Eawag;UFZ
stpQQR349,Clotrimazole|1-[(2-chlorophenyl)-diphenylmethyl]imidazole,Clc1ccccc1C(c1ccccc1)(c1ccccc1)n1ccnc1,344.10803,C22H17ClN2,"InChI=1S/C22H17ClN2/c23-21-14-8-7-13-20(21)22(25-16-15-24-17-25,18-9-3-1-4-10-18)19-11-5-2-6-12-19/h1-17H",CAS_RN: 23593-75-1,2812,VNFPBHJOKIVQEB-UHFFFAOYSA-N,2710,DTXSID7029871,Positive,SM854903;EA032901|EA032910|EA032913|EA032914,[M+H]+;[M+H]+,HCD35;CID35|HCD45|HCD90|CID35,277.0782:165.07:345.1154;278.0835|165.0698:278.0835|165.0699:277.0781|277.0776,278.0835;277.0781;165.0699,CASMI_2016;Eawag,NA,NA,NA,NA,NA,NA
stpQQR350,"Propyphenazone|1,5-dimethyl-2-phenyl-4-propan-2-ylpyrazol-3-one",CC(C)C1=C(C)N(C)N(C1=O)c1ccccc1,230.14191,C14H18N2O,"InChI=1S/C14H18N2O/c1-10(2)13-11(3)15(4)16(14(13)17)12-8-6-5-7-9-12/h5-10H,1-4H3",CAS_RN: 479-92-5,3778,PXWLVJLKJGVOKE-UHFFFAOYSA-N,3646,DTXSID6023529,Positive,SM855001;UF407101|UF407102|UF407103|UF407104,[M+H]+;[M+H]+,HCD35;HCD55|HCD80|CID35|CID55,231.1493:189.1023:56.0497;231.1495:189.1025:201.1026|189.1024:201.1025:118.0652|231.1495:189.1025:216.126|189.1024:216.1259:201.1025,216.12595;201.1025;189.1024;118.0652;56.0497,CASMI_2016;UFZ,NA,NA,NA,NA,NA,NA
stpQQR351,"Paroxetine|(3S,4R)-3-(1,3-benzodioxol-5-yloxymethyl)-4-(4-fluorophenyl)piperidine",Fc1ccc(cc1)[C@@H]1CCNC[C@H]1COc1ccc2OCOc2c1,329.14272,C19H20FNO3,"InChI=1S/C19H20FNO3/c20-15-3-1-13(2-4-15)17-7-8-21-10-14(17)11-22-16-5-6-18-19(9-16)24-12-23-18/h1-6,9,14,17,21H,7-8,10-12H2/t14-,17-/m0/s1",CAS_RN: 61869-08-7,43815,AHOUBRCZNHFOSL-YOEHRIQHSA-N,39888,DTXSID3023425,Positive,AU152606;SM855502,[M+H]+;[M+H]+,CIDRAMP 21.6-32.4;HCD35,330.1505:192.1182:70.0642;330.1501:70.0652:192.1183,192.11825;70.0647,Athens_Univ;CASMI_2016,NA,NA,NA,NA,NA,NA
stpQQR352,Propranolol|1-naphthalen-1-yloxy-3-(propan-2-ylamino)propan-2-ol,CC(C)NCC(O)COc1cccc2ccccc12,259.15723,C16H21NO2,"InChI=1S/C16H21NO2/c1-12(2)17-10-14(18)11-19-16-9-5-7-13-6-3-4-8-15(13)16/h3-9,12,14,17-18H,10-11H2,1-2H3",CAS_RN: 525-66-6,4946,AQHHHDLHHXJYJD-UHFFFAOYSA-N,4777,DTXSID6023525,Positive,AU110801;SM855601;EA017101|EA017102|EA017103|EA017104|EA017105|EA017106|EA017107|EA017108|EA017109|EA017110|EA017111|EA017112|EA017113|EA017114,[M+H]+;[M+H]+;[M+H]+,CID20.2-30.2;HCD35;CID35|HCD15|HCD30|HCD45|HCD60|HCD75|HCD90|HCD15|HCD30|HCD45|HCD60|HCD75|HCD90|CID35,260.1659:74.0597:72.0803;260.1645:116.107:183.0805;183.0805:116.107:157.0647|260.1646:116.1068|260.1647:116.1069:183.0803|116.1069:183.0803:260.1645|155.0855:116.1069:74.0601|155.0855:74.06:129.0698|155.0603:129.0698:74.0601|260.1646:116.1068|260.1647:116.107:183.0804|116.1069:183.0803:260.1639|155.0854:74.06:116.1069|155.0854:74.06:129.0697|129.0698:155.0602:56.0494|183.0804:116.107:157.0648,183.0804;157.06475;155.08545;155.06025;129.0698;116.1069;74.06;72.0803;56.0494,Athens_Univ;CASMI_2016;Eawag,NA,NA,NA,NA,NA,NA
stpQQR353,"Verapamil|2-(3,4-dimethoxyphenyl)-5-[2-(3,4-dimethoxyphenyl)ethyl-methylamino]-2-propan-2-ylpentanenitrile",COc1ccc(CCN(C)CCCC(C#N)(C(C)C)c2ccc(OC)c(OC)c2)cc1OC,454.28316,C27H38N2O4,"InChI=1S/C27H38N2O4/c1-20(2)27(19-28,22-10-12-24(31-5)26(18-22)33-7)14-8-15-29(3)16-13-21-9-11-23(30-4)25(17-21)32-6/h9-12,17-18,20H,8,13-16H2,1-7H3",CAS_RN: 52-53-9,2520,SGTNSNPWRIOYBX-UHFFFAOYSA-N,2425,DTXSID9041152,Positive,AU226001|AU226002|AU226003|AU226004|AU226005;SM855703;EA067401|EA067402|EA067403|EA067404|EA067405|EA067406|EA067407|EA067408|EA067409|EA067410|EA067411|EA067412|EA067413|EA067414;UF408101|UF408102|UF408103|UF408104,[M+H]+;[M+H]+;[M+H]+;[M+H]+,CID10|CID20|CID30|CID40|CID50;HCD35;CID35|HCD15|HCD30|HCD45|HCD60|HCD75|HCD90|HCD15|HCD30|HCD45|HCD60|HCD75|HCD90|CID35;HCD55|HCD80|CID35|CID55,455.291:456.2939:457.2963|455.291:456.2939:165.0902|165.09:455.29:303.2064|165.0902:150.0667:303.2067|165.0899:150.0667:151.0721;165.0911:455.2906:150.0676;303.207:165.0913:150.0676|455.291:150.0669|165.0911:455.2907:303.2067|165.0913:303.2068:150.0676|165.0911:150.0676:105.0699|150.0676:165.0911:105.07|150.0676:135.0442:134.0727|455.2907|165.0912:455.2906:303.2068|165.0912:303.2069:150.0676|165.0913:150.0677:105.07|150.0677:165.0911:105.0699|135.0441:150.0676:134.0727|303.2071:165.0911:150.0676;165.0913:150.0678:105.07|150.0677:105.0699:134.0728|303.2074:165.0914:260.1651|303.2074:165.0913:260.1651,303.20685;260.1651;165.0911;151.0721;150.0676;135.04415;134.0727;105.06995,Athens_Univ;CASMI_2016;Eawag;UFZ,NA,NA,NA,NA,NA,NA