NORMAN_ID,NAME,SMILES,NEUTRAL_EXACT_MASS,FORMULA,StdInChI,CAS_RN,PUBCHEM_CID,InChIKey,CHEMSPIDER_ID,DTXSID,Preferable Ionization,MB_Records Positive Ionization,Adduct Positive Ionization,Ionisation type and collision energy Positive Ionization,Fragments Positive Ionization,Simplified_fragments_Positive,Institute Positive Ionization,MB_Records Negative Ionization,Adduct Negative Ionization,Ionisation type and collision energy Negative Ionization,Fragments Negative Ionization,Simplified_fragments_Negative,Institute Negative Ionization
stpQQR97,Candesartan|2-Ethoxy-3-[[4-[2-(2H-tetrazol-5-yl)phenyl]phenyl]methyl]benzimidazole-4-carboxylic acid,CCOC1=Nc2cccc(C(O)=O)c2N1Cc1ccc(-c2ccccc2C2NN=NN=2)cc1,440.15969,C24H20N6O3,"InChI=1S/C24H20N6O3/c1-2-33-24-25-20-9-5-8-19(23(31)32)21(20)30(24)14-15-10-12-16(13-11-15)17-6-3-4-7-18(17)22-26-28-29-27-22/h3-13H,2,14H2,1H3,(H,31,32)(H,26,27,28,29)",CAS_RN: 145040-37-5,2541,HTQMVQVXFRQIKW-UHFFFAOYSA-N,2445,DTXSID0022725,Positive/Negative,AU213701|AU213702|AU213703|AU213704|AU213705;SM818201;EA280401|EA280402|EA280403|EA280404|EA280405|EA280406|EA280407|EA280408|EA280409|EA280410|EA280411|EA280412|EA280413|EA280414,[M+H]+;[M+H]+;[M+H]+,CID10|CID20|CID30|CID40|CID50;HCD35;CID35|HCD15|HCD30|HCD45|HCD60|HCD75|HCD90|HCD15|HCD30|HCD45|HCD60|HCD75|HCD90|CID35,263.1283:441.1665:423.1569|263.1281:423.1561:235.0969|207.0907:235.1224:263.1285|207.0909:180.0798:190.0639|207.0904:180.0798:206.0825;263.1294:423.1569:207.0919;263.1296:423.1573:235.1231|263.1295:423.157:441.1672|263.1293:235.1231:207.0917|207.0917:192.0808:210.0914|192.0802:165.07:180.0808|165.07:190.0654:178.0778|165.07:190.0653:152.0622|263.1295:423.1567:441.1672|263.1292:235.123:207.0917|207.0917:192.0808:210.0914|192.0808:165.0699:180.0808|165.07:190.0652:178.0778|165.07:190.0652:152.0622|263.1294:423.157:235.123,423.1569;263.12935;235.123;235.0969;210.0914;207.0917;206.0825;192.0808;190.0652;180.0803;178.0778;165.07;152.0622,Athens_Univ;CASMI_2016;Eawag,AU213751|AU213752|AU213753|AU213754|AU213755;SM818251;EA280451|EA280452|EA280453|EA280454|EA280455|EA280456|EA280457|EA280458|EA280459|EA280460|EA280461|EA280462|EA280463|EA280464,[M-H]-;[M-H]-;[M-H]-,CID10|CID20|CID30|CID40|CID50;HCD35;CID35|HCD15|HCD30|HCD45|HCD60|HCD75|HCD90|HCD15|HCD30|HCD45|HCD60|HCD75|HCD90|CID35,439.149:440.1536|309.1011:439.149:133.0394|309.1023:133.0404:132.032|132.0319:133.0405:309.1003|133.0397:132.0321:309.1059;439.1524:309.1032:132.0327;309.1032:354.1007:411.147|439.1526:309.1039|309.1035:293.1083:133.0408|309.1036:132.033:133.0408|132.0329:133.0406:309.1034|132.0331:133.0409|132.0328:133.0408|439.1523:309.103:354.1019|309.1032:293.1079:132.0327|132.0328:133.0407:309.1029|132.0329:133.0406:309.1033|132.0328:133.0408:281.1089|133.0407:132.0328:190.066|309.1031:354.1006:411.1459,439.1523;411.14645;354.1007;309.1032;293.1081;281.1089;190.066;133.0407;132.0328,Athens_Univ;CASMI_2016;Eawag
stpQQR98,"Climbazole|1-(4-chlorophenoxy)-1-imidazol-1-yl-3,3-dimethylbutan-2-one",CC(C)(C)C(=O)C(N1C=CN=C1)Oc1ccc(Cl)cc1,292.09786,C15H17ClN2O2,"InChI=1S/C15H17ClN2O2/c1-15(2,3)13(19)14(18-9-8-17-10-18)20-12-6-4-11(16)5-7-12/h4-10,14H,1-3H3",CAS_RN: 38083-17-9,37907,OWEGWHBOCFMBLP-UHFFFAOYSA-N,34752,DTXSID6046555,Positive/Negative,SM818301;EA273901|EA273902|EA273903|EA273904|EA273905|EA273906|EA273907|EA273908|EA273909|EA273910|EA273911|EA273912|EA273913|EA273914,[M+H]+;[M+H]+,HCD35;CID35|HCD15|HCD30|HCD45|HCD60|HCD75|HCD90|HCD15|HCD30|HCD45|HCD60|HCD75|HCD90|CID35,293.1053:69.07:197.0729;197.0729:225.0677:137.1073|293.1055:197.0723:69.0695|197.0727:293.1051:69.0699|197.0727:69.0699:141.0101|69.0699:141.0101:126.9945|126.9944:69.0699:98.9996|98.9996:139.0057:126.9945|293.1053:197.0726:225.0674|197.0728:293.1054:69.0699|197.0727:69.0699:141.0102|69.0699:141.0102:126.9945|69.0698:126.9944:98.9995|98.9996:139.0057:57.0698|197.0728:225.0677:137.1073,225.0677;197.0727;141.01015;139.0057;137.1073;126.9945;98.9996;69.0699;57.0698,CASMI_2016;Eawag,EA273951|EA273952|EA273953|EA273954|EA273955|EA273956|EA273957|EA273958|EA273959|EA273960|EA273961|EA273962|EA273964,[M-H]-,CID35|HCD15|HCD30|HCD45|HCD60|HCD75|HCD90|HCD15|HCD30|HCD45|HCD60|HCD75|CID35,234.02:221.0125:233.0117|67.0304|67.0303|67.0304|67.0303|67.0302|67.0302|67.0303|67.0302|67.0302|67.0302|67.0303|234.02:263.0954:221.0126,263.0954;234.02;233.0117;221.01255;67.0303,Eawag
stpQQR99,Cotinine|1-methyl-5-pyridin-3-ylpyrrolidin-2-one,CN1C(c2cccnc2)CCC1=O,176.09496,C10H12N2O,"InChI=1S/C10H12N2O/c1-12-9(4-5-10(12)13)8-3-2-6-11-7-8/h2-3,6-7,9H,4-5H2,1H3",CAS_RN: 486-56-6,408,UIKROCXWUNQSPJ-UHFFFAOYSA-N,395,DTXSID6047577,Positive,SM818403,[M+H]+,HCD35,177.1023:80.0495:98.0601,98.0601;80.0495,CASMI_2016,NA,NA,NA,NA,NA,NA
stpQQR100,"Di(2-ethylhexyl)phthalate (DEHP)|DEHP|Bis(2-ethylhexyl) benzene-1,2-dicarboxylate",CCCCC(CC)COC(=O)c1ccccc1C(=O)OCC(CC)CCCC,390.27701,C24H38O4,"InChI=1S/C24H38O4/c1-5-9-13-19(7-3)17-27-23(25)21-15-11-12-16-22(21)24(26)28-18-20(8-4)14-10-6-2/h11-12,15-16,19-20H,5-10,13-14,17-18H2,1-4H3",CAS_RN: 117-81-7,8343,BJQHLKABXJIVAM-UHFFFAOYSA-N,21106505,DTXSID5020607,Positive,SM818501,[M+H]+,HCD35,149.0235:71.0857:167.0341,167.0341;149.0235;71.0857,CASMI_2016,NA,NA,NA,NA,NA,NA
stpQQR101,"Dinoseb|2-Butan-2-yl-4,6-dinitrophenol",CCC(C)c1cc(cc(c1O)N(=O)=O)N(=O)=O,240.07462,C10H12N2O5,"InChI=1S/C10H12N2O5/c1-3-6(2)8-4-7(11(14)15)5-9(10(8)13)12(16)17/h4-6,13H,3H2,1-2H3",CAS_RN: 88-85-7,6950,OWZPCEFYPSAJFR-UHFFFAOYSA-N,6684,DTXSID3020207,Negative,NA,NA,NA,NA,NA,NA,SM818656;EA025751|EA025752|EA025753|EA025754|EA025755|EA025756|EA025757|EA025758|EA025759|EA025760|EA025761|EA025762|EA025763|EA025764,[M-H]-;[M-H]-,HCD35;CID35|HCD15|HCD30|HCD45|HCD60|HCD75|HCD90|HCD15|HCD30|HCD45|HCD60|HCD75|HCD90|CID35,239.0674:194.0459:193.0255;194.046:222.0646:239.0673|239.0674|239.0673:194.0466:222.0652|239.0673:194.0458:193.0255|193.0252:194.0458:239.0675|193.0254:194.0453:192.0664|134.0247:193.0257:176.0354|239.0673|239.0673:194.0458|239.0672:194.0457:193.0253|193.0253:194.0456:239.0673|193.0253:194.0457:192.0663|134.0246:193.0252:162.0195|194.0459:222.0644:221.0566,239.0673;222.0646;221.0566;194.0458;193.0253;192.06635;176.0354;162.0195;134.02465,CASMI_2016;Eawag
stpQQR102,"Irbesartan|2-butyl-3-[[4-[2-(2H-tetrazol-5-yl)phenyl]phenyl]methyl]-1,3-diazaspiro[4.4]non-1-en-4-one",CCCCC1=NC2(CCCC2)C(=O)N1Cc1ccc(-c2ccccc2C2NN=NN=2)cc1,428.23246,C25H28N6O,"InChI=1S/C25H28N6O/c1-2-3-10-22-26-25(15-6-7-16-25)24(32)31(22)17-18-11-13-19(14-12-18)20-8-4-5-9-21(20)23-27-29-30-28-23/h4-5,8-9,11-14H,2-3,6-7,10,15-17H2,1H3,(H,27,28,29,30)",CAS_RN: 138402-11-6,3749,YOSHYTLCDANDAN-UHFFFAOYSA-N,3618,DTXSID0023169,Positive/Negative,AU209402|AU209403|AU209404|AU209405;SM818701;EA277401|EA277402|EA277403|EA277404|EA277405|EA277406|EA277407|EA277408|EA277409|EA277410|EA277411|EA277412|EA277413|EA277414,[M+H]+;[M+H]+;[M+H]+,CID20|CID30|CID40|CID50;HCD35;CID35|HCD15|HCD30|HCD45|HCD60|HCD75|HCD90|HCD15|HCD30|HCD45|HCD60|HCD75|HCD90|CID35,207.0911:429.2402:430.2434|207.0909:195.1484:208.094|207.0912:208.0944:180.0798|207.091:180.0798:208.0942;207.0918:429.2402:195.1494;207.0917:401.2334:195.1492|429.2398:207.0909:401.2333|207.0916:195.1491:429.2394|207.0916:195.149:192.0802|207.0916:180.0806:206.0837|180.0806:205.0759:207.0914|205.0759:180.0807:165.0698|429.2397:207.0913:401.2335|207.0917:195.1492:429.2394|207.0918:195.1492:192.0807|207.0918:180.0807:206.0839|180.0807:205.076:207.0916|205.076:180.0807:152.062|207.0917:401.2333:195.1492,401.23335;208.0942;207.0916;206.0838;205.07595;195.1492;192.08045;180.08065;165.0698;152.062,Athens_Univ;CASMI_2016;Eawag,AU209451|AU209452|AU209453|AU209454|AU209455;SM818756;EA277451|EA277452|EA277453|EA277454|EA277455|EA277456|EA277457|EA277458|EA277459|EA277460|EA277461|EA277462|EA277463|EA277464,[M-H]-;[M-H]-;[M-H]-,CID10|CID20|CID30|CID40|CID50;HCD35;CID35|HCD15|HCD30|HCD45|HCD60|HCD75|HCD90|HCD15|HCD30|HCD45|HCD60|HCD75|HCD90|CID35,427.2193:428.2241|193.133:427.2205:428.2198|193.1328:194.1373|193.1325:194.1371|193.133:164.0946;193.1346:427.225:399.219;193.1346:399.219:371.2127|427.2257|193.1347:427.2251:399.2191|193.1346|193.1347:164.0957:138.0801|193.1347:164.0957:121.0407|121.0407:164.0957:193.1347|427.2253:193.1355|193.1347:427.2254:399.2193|193.1346:164.0959:195.081|193.1347:164.0956:138.0802|193.1346:164.0954:121.0407|121.0407:164.0954:193.1346|193.1345:399.2187:371.2124,427.2251;399.219;371.21255;195.081;194.1372;193.1346;164.09565;138.08015;121.0407,Athens_Univ;CASMI_2016;Eawag
stpQQR103,Labetalol|2-hydroxy-5-[1-hydroxy-2-(4-phenylbutan-2-ylamino)ethyl]benzamide,CC(CCC1=CC=CC=C1)NCC(O)C1=CC(C(N)=O)=C(O)C=C1,328.17869,C19H24N2O3,"InChI=1S/C19H24N2O3/c1-13(7-8-14-5-3-2-4-6-14)21-12-18(23)15-9-10-17(22)16(11-15)19(20)24/h2-6,9-11,13,18,21-23H,7-8,12H2,1H3,(H2,20,24)",CAS_RN: 83167-24-2,3869,SGUAFYQXFOLMHL-UHFFFAOYSA-N,3734,DTXSID2023191,Positive/Negative,SM818801,[M+H]+,HCD35,162.055:311.1757:91.0543,311.1757;162.055;91.0543,CASMI_2016,SM818851,[M-H]-,HCD35,327.1714:309.1608:176.0591,327.1714;309.1608;176.0591,CASMI_2016
stpQQR104,Losartan|[2-butyl-5-chloro-3-[[4-[2-(2H-tetrazol-5-yl)phenyl]phenyl]methyl]imidazol-4-yl]methanol,CCCCC1=NC(Cl)=C(CO)N1Cc1ccc(-c2ccccc2C2=NNN=N2)cc1,422.16219,C22H23ClN6O,"InChI=1S/C22H23ClN6O/c1-2-3-8-20-24-21(23)19(14-30)29(20)13-15-9-11-16(12-10-15)17-6-4-5-7-18(17)22-25-27-28-26-22/h4-7,9-12,30H,2-3,8,13-14H2,1H3,(H,25,26,27,28)",CAS_RN: 114798-26-4,3961,PSIFNNKUMBGKDQ-UHFFFAOYSA-N,3824,DTXSID7023227,Positive/Negative,SM860702;EQ279401|EQ279402|EQ279403|EQ279404|EQ279405|EQ279406|EQ279407|EQ279408|EQ279409,[M+H]+;[M+H]+,HCD35;HCD15|HCD30|HCD45|HCD60|HCD75|HCD90|HCD120|HCD150|HCD180,207.0916:405.1589:180.0807;405.1588:377.1528:207.0916|207.0916:235.0978:171.0683|207.0916:180.0807:206.0839|180.0807:206.0838:207.0916|205.0761:180.0807:190.0651|205.076:152.062:165.0698|152.062:205.076:169.0647|152.062:169.0647:150.0464|150.0464:163.0542:63.0229,405.15885;377.1528;235.0978;207.0916;206.08385;205.076;190.0651;180.0807;171.0683;169.0647;165.0698;163.0542;152.062;150.0464;63.0229,CASMI_2016;Eawag,SM860752;EQ279451|EQ279452|EQ279453|EQ279454|EQ279455|EQ279456|EQ279457|EQ279458|EQ279459,[M-H]-;[M-H]-,HCD35;HCD15|HCD30|HCD45|HCD60|HCD75|HCD90|HCD120|HCD150|HCD180,421.1552:127.0066:179.0867;421.1548:335.1319:179.0865|179.0866:127.0068:157.0537|127.0068:157.0538:179.0866|127.0068:157.0538:179.0866|127.0068:157.0537:113.999|127.0069:113.999:157.0538|127.0068:113.999:165.0705|127.0069:113.999:65.0145|127.0067:50.0035:65.9985,421.155;335.1319;179.0866;165.0705;157.0538;127.0068;113.999;65.9985;65.0145;50.0035,CASMI_2016;Eawag
stpQQR105,Telmisartan|2-[4-[[4-methyl-6-(1-methylbenzimidazol-2-yl)-2-propylbenzimidazol-1-yl]methyl]phenyl]benzoic acid,CCCC1=Nc2c(C)cc(C3=Nc4ccccc4N3C)cc2N1Cc1ccc(-c2ccccc2C(O)=O)cc1,514.23688,C33H30N4O2,"InChI=1S/C33H30N4O2/c1-4-9-30-35-31-21(2)18-24(32-34-27-12-7-8-13-28(27)36(32)3)19-29(31)37(30)20-22-14-16-23(17-15-22)25-10-5-6-11-26(25)33(38)39/h5-8,10-19H,4,9,20H2,1-3H3,(H,38,39)",CAS_RN: 144701-48-4,65999,RMMXLENWKUUMAY-UHFFFAOYSA-N,59391,DTXSID8023636,Positive/Negative,AU225101|AU225102|AU225103|AU225104|AU225105;SM819101;EA280501|EA280502|EA280503|EA280504|EA280505|EA280506|EA280507|EA280508|EA280509|EA280510|EA280511|EA280512|EA280513|EA280514,[M+H]+;[M+H]+;[M+H]+,CID10|CID20|CID30|CID40|CID50;HCD35;CID35|HCD15|HCD30|HCD45|HCD60|HCD75|HCD90|HCD15|HCD30|HCD45|HCD60|HCD75|HCD90|CID35,515.2504:516.2518:517.2548|515.2516:516.2518:517.2547|515.2519:497.2376:517.2546|515.2494:497.238:516.2517|276.1393:497.2384:498.2412;515.2449:276.1373:497.2342;497.2335:498.2375:305.1761|515.2444:498.2352:261.1148|515.244:497.233:498.2372|497.2339:276.137:515.2433|276.1373:289.1449:211.0755|276.1374:261.1137:289.1449|261.1137:276.1371:275.1292|515.2443:498.2371|515.2445:497.2336:305.176|497.2342:276.1374:515.2441|276.137:289.145:211.0757|276.1371:261.1137:289.1448|261.1137:276.1372:275.1292|497.234:498.2376:305.1764,498.23735;497.2341;305.1761;289.1449;276.13725;275.1292;261.1137;211.0756,Athens_Univ;CASMI_2016;Eawag,AU225151|AU225152|AU225153|AU225154|AU225155;SM819151;EA280551|EA280552|EA280553|EA280554|EA280555|EA280556|EA280558|EA280559|EA280560|EA280561|EA280562|EA280563|EA280564,[M-H]-;[M-H]-;[M-H]-,CID10|CID20|CID30|CID40|CID50;HCD35;CID35|HCD15|HCD30|HCD45|HCD60|HCD75|HCD15|HCD30|HCD45|HCD60|HCD75|HCD90|CID35,513.2249:514.2258|513.2229:469.2333:514.2246|287.1264:469.2343:334.1395|287.1277:303.158:469.2341|287.1266:303.1585:288.1294;287.1303:513.2295:469.2397;469.2389:302.153:287.1295|513.2299|287.1304:469.2392:302.1539|287.1303:303.1615|287.1305:303.1618|287.1299:272.1064|513.2309|287.1298:469.2415:270.0118|287.1299:303.1606|287.1303:303.1614|287.1289|272.107|469.2388:302.1534:287.1299,513.2295;469.23885;334.1395;303.161;302.1534;288.1294;287.1299;272.1067;270.0118,Athens_Univ;CASMI_2016;Eawag
stpQQR106,Torasemide|N-[4-(3-methylanilino)pyridin-1-ium-3-yl]sulfonyl-N`-propan-2-ylcarbamimidate,CC(C)NC(=O)NS(=O)(=O)c1cnccc1Nc1cccc(C)c1,348.12561,C16H20N4O3S,"InChI=1S/C16H20N4O3S/c1-11(2)18-16(21)20-24(22,23)15-10-17-8-7-14(15)19-13-6-4-5-12(3)9-13/h4-11H,1-3H3,(H,17,19)(H2,18,20,21)",CAS_RN: 56211-40-6,41781,NGBFQHCMQULJNZ-UHFFFAOYSA-N,38123,DTXSID2023690,Positive/Negative,SM819202;EQ314501|EQ314502|EQ314503|EQ314504|EQ314505|EQ314506,[M+H]+;[M+H]+,HCD35;HCD15|HCD30|HCD45|HCD60|HCD75|HCD90,264.0803:183.0918:290.0595;264.0804:349.1332:290.0597|264.0804:290.0596:183.0914|264.0804:183.0918:219.0588|183.0918:264.0804:168.0683|168.0683:183.0918:182.0841|168.0683:183.0918:182.084,290.0596;264.0804;219.0588;183.0918;182.08405;168.0683,CASMI_2016;Eawag,SM819252;EQ314551|EQ314552|EQ314553|EQ314554|EQ314555|EQ314556,[M-H]-;[M-H]-,HCD35;HCD15|HCD30|HCD45|HCD60|HCD75|HCD90,262.0656:195.0801:196.088;262.0654:288.0446:77.9653|262.0655:196.088:195.08|262.0655:196.088:195.0801|262.0655:195.0802:196.088|195.0801:77.9655:108.0329|77.9655:181.0771:195.0801,288.0446;262.0655;196.088;195.0801;181.0771;108.0329;77.9655,CASMI_2016;Eawag
stpQQR107,"Tris(1,3-dichlorisopropyl)phosphate (TDCPP)|TDCPP|Tris(1,3-dichloropropan-2-yl) phosphate",O=P(OC(CCl)CCl)(OC(CCl)CCl)OC(CCl)CCl,427.88391,C9H15Cl6O4P,"InChI=1S/C9H15Cl6O4P/c10-1-7(2-11)17-20(16,18-8(3-12)4-13)19-9(5-14)6-15/h7-9H,1-6H2",CAS_RN: 13674-87-8,26177,ASLWPAWFJZFCKF-UHFFFAOYSA-N,24388,DTXSID9026261,Positive,SM819401;SM880902,[M+H]+;[M+H]+,HCD35;HCD35,98.9843:318.9226:208.9534;98.9842:318.9224:208.9533,318.9225;208.95335;98.98425,CASMI_2016;CASMI_2016,NA,NA,NA,NA,NA,NA
stpQQR108,1H-Benzotriazole|2H-Benzotriazole|Benzotriazole,N1N=NC2=CC=CC=C12,119.04835,C6H5N3,"InChI=1S/C6H5N3/c1-2-4-6-5(3-1)7-9-8-6/h1-4H,(H,7,8,9)",CAS_RN: 95-14-7,7220,QRUDEWIWKLJBPS-UHFFFAOYSA-N,6950,DTXSID6020147,Positive/Negative,AU405002|AU405003;SM819701;SM879903;EA016601|EA016602|EA016603|EA016604|EA016605|EA016606|EA016607|EA016608|EA016609|EA016610|EA016611|EA016612|EA016613|EA016614;TUE00161|TUE00162|TUE00163;UF417701|UF417702|UF417703|UF417704;UA000201|UA000203,[M+H]+;[M+H]+;[M+H]+;[M+H]+;[M+H]+;[M+H]+;[M+H]+,CID20|CID30;HCD35;HCD35;CID35|HCD15|HCD30|HCD45|HCD60|HCD75|HCD90|HCD15|HCD30|HCD45|HCD60|HCD75|HCD90|CID35;NA10.0V|NA20.0V|NA40.0V;HCD55|HCD80|CID35|CID55;CID35|CID35,120.0545:121.0582:65.0384|120.0549:65.0384:92.0494;120.0556:65.0387:92.0495;120.0556:92.0495:65.0387;120.0556:92.0494:65.0384|120.0557|120.0556:65.0386:92.0495|120.0556:92.0495:65.0385|120.0556:92.0494:65.0385|120.0556:65.0385:92.0494|120.0556:65.0386:92.0495|120.0556:92.0498|120.0556:65.0384:92.0497|120.0556:65.0385:92.0494|120.0555:92.0494:65.0385|120.0555:65.0385:92.0494|120.0555:65.0386:92.0495|120.0556:92.0494;120.0548:65.0379:92.0486|65.038:120.0546:92.0485|65.0379:39.0217:51.0218;120.0559:92.0498|120.056:92.0497|120.0559:92.0496:65.0386|92.0497:65.0386;92.0493:120.0554|92.0494:65.0384:120.0551,92.04945;65.0385;51.0218;39.0217,Athens_Univ;CASMI_2016;CASMI_2016;Eawag;Env_Anal_Chem_U_Tuebingen;UFZ;UFZ_Additional_Specs,EA016651|EA016652|EA016653|EA016654|EA016655|EA016656|EA016657|EA016658|EA016659|EA016660|EA016661|EA016662|EA016663|EA016664;TUE00165|TUE00166|TUE00167;UA000202,[M-H]-;[M-H]-;[M-H]-,CID35|HCD15|HCD30|HCD45|HCD60|HCD75|HCD90|HCD15|HCD30|HCD45|HCD60|HCD75|HCD90|CID35;NA10.0V|NA20.0V|NA40.0V;CID35,118.0412:90.0348|118.0412|118.0412:90.0348|118.0413:90.0349|118.0413:90.0349|118.0411:90.0349|118.0412:90.0349|118.0411|118.0412|118.0412:90.035|118.0411:90.0349|118.041:90.0348|118.041:90.0348|118.0411;118.0411:90.0347:50.0032|118.041:90.0347:50.0031|50.0032:40.0186:64.019;118.0412,118.0412;90.03485;64.019;50.0032;40.0186,Eawag;Env_Anal_Chem_U_Tuebingen;UFZ_Additional_Specs
stpQQR109,"2-Benzothiazolesulfonic acid|Benzothiazole-2-sulfonic acid|1,3-benzothiazole-2-sulfonic acid",OS(=O)(=O)C1=NC2=CC=CC=C2S1,214.97108,C7H5NO3S2,"InChI=1S/C7H5NO3S2/c9-13(10,11)7-8-5-3-1-2-4-6(5)12-7/h1-4H,(H,9,10,11)",CAS_RN: 941-57-1,30647,ZCXGMSGCBDSEOY-UHFFFAOYSA-N,28443,DTXSID80240528,Positive/Negative,SM882601,[M+H]+,HCD35,215.9784:134.0059:152.0165,152.0165;134.0059,CASMI_2016,SM882651;UF420951|UF420952|UF420953|UF420954,[M-H]-;[M-H]-,HCD35;HCD55|HCD80|CID35|CID55,213.9638:134.0069:150.0019;213.9638|213.9638|150.0019:134.0069|150.0019:134.0069,213.9638;150.0019;134.0069,CASMI_2016;UFZ
stpQQR110,2-Isopropyl-6-methyl-pyrimidin-4-ol|6-methyl-2-propan-2-yl-1H-pyrimidin-4-one,CC(C)C1=NC(=O)C=C(C)N1,152.09496,C8H12N2O,"InChI=1S/C8H12N2O/c1-5(2)8-9-6(3)4-7(11)10-8/h4-5H,1-3H3,(H,9,10,11)",CAS_RN: 2814-20-2,17777,AJPIUNPJBFBUKK-UHFFFAOYSA-N,16799,DTXSID1027502,Positive,AU207101|AU207102|AU207103|AU207104;SM881401;EA270601|EA270602|EA270603|EA270604|EA270605|EA270606|EA270607|EA270608|EA270609|EA270610|EA270611|EA270612|EA270613|EA270614;UF419501|UF419502|UF419503|UF419504,[M+H]+;[M+H]+;[M+H]+;[M+H]+,CID10|CID20|CID30|CID40;HCD35;CID35|HCD15|HCD30|HCD45|HCD60|HCD75|HCD90|HCD15|HCD30|HCD45|HCD60|HCD75|HCD90|CID35;HCD55|HCD80|CID35|CID55,153.1019:154.1044:155.1068|153.1019:154.1044:137.0701|137.07:153.1019:138.0766|137.0698:138.0744:153.1002;153.1022:84.0444:70.0652;153.1023:84.0444:70.0652|153.1022:84.0446:138.0789|153.1022:84.0446:137.0715|153.1022:84.0444:70.0652|153.1022:84.0444:70.0651|84.0444:153.102:70.0651|84.0444:70.0651:153.102|153.1022:84.044:137.0704|153.1022:84.0444:137.0708|153.1022:84.0444:70.0651|153.1022:84.0444:70.0651|84.0444:153.1022:70.0651|84.0444:70.0651:153.1021|153.1022:84.0444:70.0651;153.1026:84.0446:70.0653|84.0445:153.1026:70.0652|153.1026:84.0446:70.0653|84.0445:153.1027:70.0653,138.0766;137.07025;84.0444;70.0651,Athens_Univ;CASMI_2016;Eawag;UFZ,NA,NA,NA,NA,NA,NA
stpQQR111,2-Isopropylthioxanthone|2-propan-2-ylthioxanthen-9-one,CC(C)C1=CC2=C(SC3=CC=CC=C3C2=O)C=C1,254.07654,C16H14OS,"InChI=1S/C16H14OS/c1-10(2)11-7-8-15-13(9-11)16(17)12-5-3-4-6-14(12)18-15/h3-10H,1-2H3",CAS_RN: 5495-84-1,79633,KTALPKYXQZGAEG-UHFFFAOYSA-N,71936,DTXSID1044691,Positive,SM880001,[M+H]+,HCD35,255.0839:213.0369:184.0341,213.0369;184.0341,CASMI_2016,NA,NA,NA,NA,NA,NA
stpQQR112,"2-Mercaptobenzimidazole|1,3-dihydrobenzimidazole-2-thione",SC1=NC2=CC=CC=C2N1,150.02517,C7H6N2S,"InChI=1S/C7H6N2S/c10-7-8-5-3-1-2-4-6(5)9-7/h1-4H,(H2,8,9,10)",CAS_RN: 99-88-7,707035,YHMYGUUIMTVXNW-UHFFFAOYSA-N,616466,DTXSID9025536,Positive,SM820501,[M+H]+,HCD35,151.0324:93.0573:118.0525,118.0525;93.0573,CASMI_2016,NA,NA,NA,NA,NA,NA