NORMAN_ID,NAME,SMILES,NEUTRAL_EXACT_MASS,FORMULA,StdInChI,CAS_RN,PUBCHEM_CID,InChIKey,CHEMSPIDER_ID,DTXSID,Preferable Ionization,MB_Records Positive Ionization,Adduct Positive Ionization,Ionisation type and collision energy Positive Ionization,Fragments Positive Ionization,Simplified_fragments_Positive,Institute Positive Ionization,MB_Records Negative Ionization,Adduct Negative Ionization,Ionisation type and collision energy Negative Ionization,Fragments Negative Ionization,Simplified_fragments_Negative,Institute Negative Ionization
stpQQR911,"Simeton|2-N,4-N-diethyl-6-methoxy-1,3,5-triazine-2,4-diamine",c1(nc(nc(n1)OC)NCC)NCC,197.1271,C8H15N5O1,"InChI=1S/C8H15N5O/c1-4-9-6-11-7(10-5-2)13-8(12-6)14-3/h4-5H2,1-3H3,(H2,9,10,11,12,13)",CAS_RN: 673-04-1,12654,HKAMKLBXTLTVCN-UHFFFAOYSA-N,12133,DTXSID9042388,Positive,EA066701|EA066702|EA066703|EA066704|EA066705|EA066706|EA066707|EA066708|EA066709|EA066710|EA066711|EA066712|EA066713|EA066714,[M+H]+,CID35|HCD15|HCD30|HCD45|HCD60|HCD75|HCD90|HCD15|HCD30|HCD45|HCD60|HCD75|HCD90|CID35,198.1352:114.0663:170.1038|198.1352|198.1351:124.087:170.1039|198.1351:124.087:128.0819|198.1349:128.0819:124.0869|100.0506:128.0819:68.0243|100.0506:68.0243:96.0556|198.135:183.1115|198.135:124.087:114.0663|198.135:128.0819:124.087|198.135:128.0819:124.087|100.0506:128.0819:68.0243|100.0506:68.0243:96.0556|198.135:114.0662:170.1037,183.1115;170.1038;128.0819;124.087;114.0663;100.0506;96.0556;68.0243,Eawag,NA,NA,NA,NA,NA,NA
stpQQR912,"Simazine-2-hydroxy|2-Hydroxysimazine|2,6-bis(ethylamino)-1H-1,3,5-triazin-4-one",Oc1nc(NCC)nc(NCC)n1,183.112,C7H13N5O,"InChI=1S/C7H13N5O/c1-3-8-5-10-6(9-4-2)12-7(13)11-5/h3-4H2,1-2H3,(H3,8,9,10,11,12,13)",CAS_RN: 255613,17448,YQIXRXMOJFQVBV-UHFFFAOYSA-N,16505,DTXSID6062547,Positive/Negative,AU207901|AU207902|AU207903|AU207904;EA066801|EA066802|EA066803|EA066804|EA066805|EA066806|EA066807|EA066808|EA066809|EA066810|EA066811|EA066812|EA066813|EA066814,[M+H]+;[M+H]+,CID10|CID20|CID30|CID40;CID35|HCD15|HCD30|HCD45|HCD60|HCD75|HCD90|HCD15|HCD30|HCD45|HCD60|HCD75|HCD90|CID35,184.1189:185.1215:114.0655|184.1186:114.0658:185.1215|184.1186:114.0659:156.0868|114.065:128.0553:184.1184;114.0662:156.088:184.1194|184.1193|184.1193:114.0662:97.0393|184.1194:114.0662:97.0398|114.0662:184.1193:69.0084|114.0662:69.0084:97.0397|69.0083:114.0661:97.0396|184.1194|184.1193:114.0662:156.088|184.1192:114.0661:97.0396|114.0662:184.1193:69.0084|114.0662:69.0084:97.0396|69.0083:114.0661:97.0396|114.0661:156.0879:97.0396,156.08795;128.0553;114.06615;97.0396;69.0084,Athens_Univ;Eawag,EA066851|EA066852|EA066853|EA066854|EA066855|EA066856|EA066857|EA066858|EA066859|EA066860|EA066861|EA066862|EA066863,[M-H]-,CID35|HCD15|HCD30|HCD45|HCD60|HCD75|HCD90|HCD15|HCD30|HCD45|HCD60|HCD75|HCD90,111.0679:154.0735:182.1048|182.1048|182.1043:154.0732:111.0675|182.1047:111.0676:154.0736|69.0458:111.0677:154.0737|69.0457:182.1041:111.068|69.0459|182.1047:154.0731|182.1046:154.0732:111.0677|182.1045:111.0676:154.0733|69.0457:111.0677:154.0734|69.0458:111.0675:154.0729|69.0458,182.10465;154.0733;111.0677;69.0458,Eawag
stpQQR913,"Secbumeton|2-N-butan-2-yl-4-N-ethyl-6-methoxy-1,3,5-triazine-2,4-diamine",c1(nc(nc(n1)OC)NCC)NC(CC)C,225.159,C10H19N5O1,"InChI=1S/C10H19N5O/c1-5-7(3)12-9-13-8(11-6-2)14-10(15-9)16-4/h7H,5-6H2,1-4H3,(H2,11,12,13,14,15)",CAS_RN: 26259-45-0,33443,ZJMZZNVGNSWOOM-UHFFFAOYSA-N,30881,DTXSID8037594,Positive,EA066901|EA066902|EA066903|EA066904|EA066905|EA066906|EA066907|EA066908|EA066909|EA066910|EA066911|EA066912|EA066913|EA066914,[M+H]+,CID35|HCD15|HCD30|HCD45|HCD60|HCD75|HCD90|HCD15|HCD30|HCD45|HCD60|HCD75|HCD90|CID35,170.1039:114.0662:142.0724|226.1664|226.1666:170.1038:96.0559|226.1662:170.1038:100.0505|170.1037:226.1665:100.0506|170.1038:100.0506:142.0724|100.0505:68.0243:69.0084|226.1665:173.1143|226.1664:170.1037:100.0505|226.1665:170.1039:100.0506|170.1038:226.1665:100.0506|170.1034:100.0505:142.0723|100.0505:68.0243:69.0084|170.1037:114.0662:226.1664,173.1143;170.1038;142.0724;114.0662;100.0505;96.0559;69.0084;68.0243,Eawag,NA,NA,NA,NA,NA,NA
stpQQR914,"Sebuthylazine|2-N-butan-2-yl-6-chloro-4-N-ethyl-1,3,5-triazine-2,4-diamine",n1c(nc(Cl)nc1NCC)NC(CC)C,229.1094,C9H16Cl1N5,"InChI=1S/C9H16ClN5/c1-4-6(3)12-9-14-7(10)13-8(15-9)11-5-2/h6H,4-5H2,1-3H3,(H2,11,12,13,14,15)",CAS_RN: 7286-69-3,23712,BZRUVKZGXNSXMB-UHFFFAOYSA-N,22172,DTXSID7058171,Positive,EA067001|EA067002|EA067003|EA067004|EA067005|EA067006|EA067007|EA067008|EA067009|EA067010|EA067011|EA067012|EA067013|EA067014,[M+H]+,CID35|HCD15|HCD30|HCD45|HCD60|HCD75|HCD90|HCD15|HCD30|HCD45|HCD60|HCD75|HCD90|CID35,174.0541:96.0555:104.001|230.1167:174.0538|230.1168:174.0541:104.0014|174.054:230.1166:104.0009|174.054:132.0323:146.0227|104.001:174.054:68.0243|104.001:68.0243:96.0556|230.1167:174.0536|230.1167:174.0541|174.0541:230.1165:146.0227|174.054:146.0227:132.0323|104.001:174.054:68.0243|104.0009:68.0243:79.0057|174.0541:188.0696:104.001,188.0696;174.054;146.0227;132.0323;104.001;96.05555;79.0057;68.0243,Eawag,NA,NA,NA,NA,NA,NA
stpQQR915,Terbutylazine-desethyl|Desethylterbutylazine|(4-amino-6-chloro-s-triazin-2-yl)-tert-butyl-amine,Nc1nc(NC(C)(C)C)nc(Cl)n1,201.0781,C7H12Cl1N5,"InChI=1S/C7H12ClN5/c1-7(2,3)13-6-11-4(8)10-5(9)12-6/h1-3H3,(H3,9,10,11,12,13)",CAS_RN: 30125-63-4,108201,LMKQNTMFZLAJDV-UHFFFAOYSA-N,97278,DTXSID80184211,Positive,SM840901;EA067101|EA067102|EA067103|EA067104|EA067105|EA067106|EA067107|EA067108|EA067109|EA067110|EA067111|EA067112|EA067113|EA067114;UF402601|UF402602|UF402603|UF402604,[M+H]+;[M+H]+;[M+H]+,HCD35;CID35|HCD15|HCD30|HCD45|HCD60|HCD75|HCD90|HCD15|HCD30|HCD45|HCD60|HCD75|HCD90|CID35;HCD55|HCD80|CID35|CID55,202.0853:132.0323:124.0869;146.0229:202.0859|202.0856:146.0231|202.0856:146.0229:79.0061|146.023:202.0848:79.0059|146.0229:104.001:79.0058|146.0229:104.0011:79.0059|146.023:104.0012:79.0059|202.0855:146.0229:68.0246|202.0856:146.023:79.0058|146.0229:202.0853:79.0058|146.0229:104.001:79.0058|146.023:104.0011:79.0059|146.023:104.0011:79.0059|146.023;202.0852:132.0322:124.0868|104.0009:96.0555:132.0322|202.0852:124.0868:132.0322|124.0868:132.0322:174.0539,174.0539;146.02295;132.0322;124.0868;104.0011;96.0555;79.0059;68.0246,CASMI_2016;Eawag;UFZ,NA,NA,NA,NA,NA,NA
stpQQR916,"Terbutylazine-desethyl-2-hydroxy|1,3,5-Triazin-2(1H)-one, 4-amino-6-((1,1-dimethylethyl)amino)-|2-amino-6-(tert-butylamino)-1H-1,3,5-triazin-4-one",Nc1nc(NC(C)(C)C)nc(O)n1,183.112,C7H13N5O,"InChI=1S/C7H13N5O/c1-7(2,3)12-5-9-4(8)10-6(13)11-5/h1-3H3,(H4,8,9,10,11,12,13)",CAS_RN: 66753-06-8,6455361,NUISVCFZNCYUIM-UHFFFAOYSA-N,4957628,DTXSID60216887,Positive/Negative,AU208301|AU208302|AU208303|AU208304;EA067201|EA067202|EA067203|EA067204|EA067205|EA067206|EA067207|EA067208|EA067209|EA067210|EA067211|EA067212|EA067213|EA067214,[M+H]+;[M+H]+,CID10|CID20|CID30|CID40;CID35|HCD15|HCD30|HCD45|HCD60|HCD75|HCD90|HCD15|HCD30|HCD45|HCD60|HCD75|HCD90|CID35,184.1182:128.0561:185.1212|128.0561:129.0578:184.1179|128.0563|128.0558;128.0567:86.0347:184.1197|184.1189:128.0565|128.0566:184.119:86.035|128.0565:184.1192:86.0348|128.0566:86.0348:85.0508|128.0565:86.0348:85.0508|86.0348:128.0565:85.0508|184.119:128.0565|128.0566:184.1191:86.0348|128.0566:184.119:86.0348|128.0565:86.0348:85.0508|128.0565:86.0348:85.0508|86.0348:128.0565:85.0507|128.0566:86.0348,129.0578;128.0565;86.0348;85.0508,Athens_Univ;Eawag,EA067251|EA067252|EA067253|EA067254|EA067255|EA067256|EA067257|EA067258|EA067259|EA067260|EA067261|EA067262,[M-H]-,CID35|HCD15|HCD30|HCD45|HCD60|HCD75|HCD90|HCD15|HCD30|HCD45|HCD60|HCD75,139.0992:126.0423:182.1047|182.1047|182.1048:139.0983:126.0422|182.1045:139.0988:97.077|97.0772:126.0423:139.0988|97.0771:83.0362:139.0996|97.077:81.0459:83.0361|182.1046:126.0427|182.1047:139.0991:126.0421|182.1047:97.0771:139.0988|97.0771:126.0421:139.0988|97.0771:126.042:81.046,182.1047;139.0988;126.0422;97.0771;83.03615;81.04595,Eawag
stpQQR917,4-Trifluoromethylphenol|4-(trifluoromethyl)phenol,Oc1ccc(C(F)(F)F)cc1,162.0292,C7H5F3O,"InChI=1S/C7H5F3O/c8-7(9,10)5-1-3-6(11)4-2-5/h1-4,11H",CAS_RN: 402-45-9,67874,BAYGVMXZJBFEMB-UHFFFAOYSA-N,61191,DTXSID2075392,Negative,NA,NA,NA,NA,NA,NA,AU200951|AU200952|AU200953;EA067351|EA067352|EA067353|EA067354|EA067355|EA067356|EA067357|EA067358|EA067359|EA067360|EA067361|EA067362|EA067363,[M-H]-;[M-H]-,CID10|CID20|CID30;CID35|HCD15|HCD30|HCD45|HCD60|HCD75|HCD90|HCD15|HCD30|HCD45|HCD60|HCD75|HCD90,161.0238:162.0274:141.0167|161.0246:141.0184:121.0113|121.0113:141.0174;161.0222:141.0156|161.022|161.0217|161.0218:141.0157|161.0217:141.0155:121.0092|161.0225:121.0094:141.0157|121.0095:73.0084:141.0159|161.0219|161.0219|161.0219:141.0156:121.0093|161.0217:141.0156:121.0094|161.022:121.0094:141.0157|121.0093:161.0224:73.0083,161.02195;141.0157;121.0094;73.00835,Athens_Univ;Eawag
stpQQR918,"Verapamil|2-(3,4-dimethoxyphenyl)-5-[2-(3,4-dimethoxyphenyl)ethyl-methyl-amino]-2-propan-2-yl-pentanenitrile",COC1=C(OC)C=CC(C(C(C)C)(C#N)CCCN(CCC2=CC(OC)=C(OC)C=C2)C)=C1,454.2832,C27H38N2O4,"InChI=1S/C27H38N2O4/c1-20(2)27(19-28,22-10-12-24(31-5)26(18-22)33-7)14-8-15-29(3)16-13-21-9-11-23(30-4)25(17-21)32-6/h9-12,17-18,20H,8,13-16H2,1-7H3",CAS_RN: 56949-77-0,2520,SGTNSNPWRIOYBX-UHFFFAOYSA-N,2425,DTXSID9041152,Positive,AU226001|AU226002|AU226003|AU226004|AU226005;SM855703;EA067401|EA067402|EA067403|EA067404|EA067405|EA067406|EA067407|EA067408|EA067409|EA067410|EA067411|EA067412|EA067413|EA067414;UF408101|UF408102|UF408103|UF408104,[M+H]+;[M+H]+;[M+H]+;[M+H]+,CID10|CID20|CID30|CID40|CID50;HCD35;CID35|HCD15|HCD30|HCD45|HCD60|HCD75|HCD90|HCD15|HCD30|HCD45|HCD60|HCD75|HCD90|CID35;HCD55|HCD80|CID35|CID55,455.291:456.2939:457.2963|455.291:456.2939:165.0902|165.09:455.29:303.2064|165.0902:150.0667:303.2067|165.0899:150.0667:151.0721;165.0911:455.2906:150.0676;303.207:165.0913:150.0676|455.291:150.0669|165.0911:455.2907:303.2067|165.0913:303.2068:150.0676|165.0911:150.0676:105.0699|150.0676:165.0911:105.07|150.0676:135.0442:134.0727|455.2907|165.0912:455.2906:303.2068|165.0912:303.2069:150.0676|165.0913:150.0677:105.07|150.0677:165.0911:105.0699|135.0441:150.0676:134.0727|303.2071:165.0911:150.0676;165.0913:150.0678:105.07|150.0677:105.0699:134.0728|303.2074:165.0914:260.1651|303.2074:165.0913:260.1651,303.20685;260.1651;165.0911;151.0721;150.0676;135.04415;134.0727;105.06995,Athens_Univ;CASMI_2016;Eawag;UFZ,NA,NA,NA,NA,NA,NA
stpQQR919,Atenolol acid|Metoprolol acid|4-(2-Hydroxy-3-((1-methylethyl)amino)propoxy)benzeneacetic acid,CC(C)NCC(O)COc1ccc(cc1)CC(=O)O,267.1471,C14H21N1O4,"InChI=1S/C14H21NO4/c1-10(2)15-8-12(16)9-19-13-5-3-11(4-6-13)7-14(17)18/h3-6,10,12,15-16H,7-9H2,1-2H3,(H,17,18)",CAS_RN: 56392-14-4,62936,PUQIRTNPJRFRCZ-UHFFFAOYSA-N,56653,DTXSID70881080,Positive/Negative,AU202501|AU202502|AU202503|AU202504;EA069701|EA069702|EA069703|EA069704|EA069705|EA069706|EA069707|EA069708|EA069709|EA069710|EA069711|EA069712|EA069713|EA069714,[M+H]+;[M+H]+,CID10|CID20|CID30|CID40;CID35|HCD15|HCD30|HCD45|HCD60|HCD75|HCD90|HCD15|HCD30|HCD45|HCD60|HCD75|HCD90|CID35,268.154:269.1576:270.1604|268.154:191.0696:226.1069|145.0641:191.0694:165.0536|145.0641:163.049:165.0535;191.0704:226.1074:145.0648|268.1548|268.1545:191.0702:226.1074|268.1544:191.0703:145.0648|145.0649:191.0702:165.0547|145.0648:163.0502:91.0542|145.0648:79.0542:91.0542|268.1546:226.1076|268.1545:191.0702:226.1073|268.1545:191.0703:145.0648|145.0649:191.0702:165.0547|145.0648:163.0502:56.0495|145.0648:79.0542:91.0542|191.0704:226.1075:145.0648,226.1074;191.0702;165.05415;163.0502;145.0648;91.0542;79.0542;56.0495,Athens_Univ;Eawag,EA069751|EA069753,[M-H]-,CID35|HCD30,222.1499:107.0504:121.0661|222.1498,222.14985;121.0661;107.0504,Eawag
stpQQR920,"Chloridazone-desphenyl|3(2H)-Pyridazinone, 5-amino-4-chloro-|4-amino-5-chloro-1H-pyridazin-6-one",c1(c(nncc1N)O)Cl,145.0043,C4H4ClN3O,"InChI=1S/C4H4ClN3O/c5-3-2(6)1-7-8-4(3)9/h1H,(H3,6,8,9)",CAS_RN: 6339-19-1,95827,FEWPCPCEGBPTAL-UHFFFAOYSA-N,86506,DTXSID50212792,Positive/Negative,AU203602|AU203603;EA069801|EA069802|EA069803|EA069804|EA069805|EA069806|EA069807|EA069808|EA069809|EA069810|EA069811|EA069812|EA069813|EA069814;UF412601|UF412602,[M+H]+;[M+H]+;[M+H]+,CID20|CID30;CID35|HCD15|HCD30|HCD45|HCD60|HCD75|HCD90|HCD15|HCD30|HCD45|HCD60|HCD75|HCD90|CID35;HCD55|HCD80,146.0106:148.0074:116.997|148.0074:146.0106:147.0123;146.0115:90.0105|146.0115|146.0117|146.0117:116.9979|146.0117:116.9977:100.9902|146.0117:116.9977:100.9902|146.0115:116.9976:100.9901|146.0114|146.0116|146.0117:116.9977|146.0117:116.9976:100.9902|146.0116:116.9976:100.9901|146.0116:116.9977:100.9901|116.9972:54.0337;146.0123:116.9981|146.0123:116.9982,116.9977;100.99015;90.0105;54.0337,Athens_Univ;Eawag;UFZ,EA069852|EA069853|EA069854|EA069855|EA069858|EA069859|EA069860|EA069861,[M-H]-,HCD15|HCD30|HCD45|HCD60|HCD15|HCD30|HCD45|HCD60,143.997|143.9968|143.9969:108.0207|143.9967|143.9969|143.9968|143.9969:108.02|143.9968,143.99685;108.02035,Eawag
stpQQR921,Chloridazone-methyl-desphenyl|1-Methyl-4-amino-5-chloro-6-oxo-(1H)-pyridazine|5-amino-4-chloro-2-methyl-3-pyridazinone,ClC(=C(C=N1)N)C(=O)N1C,159.0199,C5H6ClN3O,"InChI=1S/C5H6ClN3O/c1-9-5(10)4(6)3(7)2-8-9/h2H,7H2,1H3",CAS_RN: 17254-80-7,594330,XNSGCNYTNLWRKM-UHFFFAOYSA-N,516658,DTXSID80891453,Positive/Negative,AU203701|AU203702|AU203703|AU203704|AU203705;EA069901|EA069902|EA069903|EA069904|EA069905|EA069906|EA069907|EA069908|EA069909|EA069910|EA069911|EA069912|EA069913|EA069914,[M+H]+;[M+H]+,CID10|CID20|CID30|CID40|CID50;CID35|HCD15|HCD30|HCD45|HCD60|HCD75|HCD90|HCD15|HCD30|HCD45|HCD60|HCD75|HCD90|CID35,160.0279:162.0249:161.0305|160.0263:162.0283:161.029|160.0263:162.0283:130.0046|130.0043:160.026:116.997|130.0043:132.0017:116.997;160.0271:131.0006:131.0132|160.0271|160.0273|160.0272:116.9975:130.0053|160.0272:116.9977:130.0055|160.0272:116.9976:130.0055|160.0271:87.9949:116.9976|160.0271|160.0273|160.0273:116.9977:130.0055|160.0273:116.9977:130.0055|160.0273:116.9976:130.0054|160.0272:87.9949:116.9976|160.0271:131.0005:131.0134,132.0017;131.0133;131.00055;130.0054;116.9976;87.9949,Athens_Univ;Eawag,EA069952|EA069953|EA069959,[M-H]-,HCD15|HCD30|HCD30,158.0124|158.0126|158.0126,158.0126,Eawag
stpQQR922,Pethoxamide|2-chloro-N-(2-ethoxyethyl)-N-(2-methyl-1-phenylprop-1-enyl)acetamide,ClCC(=O)N(CCOCC)\C(=C(\C)C)c1ccccc1,295.1334,C16H22ClNO2,"InChI=1S/C16H22ClNO2/c1-4-20-11-10-18(15(19)12-17)16(13(2)3)14-8-6-5-7-9-14/h5-9H,4,10-12H2,1-3H3",CAS_RN: 106700-29-2,6450826,CSWIKHNSBZVWNQ-UHFFFAOYSA-N,4953376,DTXSID4057928,Positive,SM839902;EA070001|EA070002|EA070003|EA070004|EA070005|EA070006|EA070007|EA070008|EA070009|EA070010|EA070011|EA070012|EA070013|EA070014;UF406201|UF406202|UF406203|UF406204,[M+H]+;[M+H]+;[M+H]+,HCD35;CID35|HCD15|HCD30|HCD45|HCD60|HCD75|HCD90|HCD15|HCD30|HCD45|HCD60|HCD75|HCD90|CID35;HCD55|HCD80|CID35|CID55,131.0855:250.0994:296.1413;250.0998:131.0856:134.0368|296.1413:250.0994:131.0855|250.0994:131.0856:296.1408|131.0856:91.0542:220.1694|131.0856:91.0543:129.0698|91.0543:131.0856:116.062|91.0543:116.0621:131.0855|296.1413:250.0994:131.0855|131.0856:250.0993:296.1409|131.0856:91.0543:220.1696|131.0856:91.0543:129.0699|91.0543:131.0856:116.0621|91.0543:116.0621:131.0856|250.0994:131.0856:134.0368;131.0854:91.0541:160.112|91.0541:131.0854:116.0619|250.0991:131.0854:134.0366|250.0992:131.0854:134.0367,250.0994;220.1695;160.112;134.03675;131.0856;129.06985;116.0621;91.0543,CASMI_2016;Eawag;UFZ,NA,NA,NA,NA,NA,NA
stpQQR923,Ritalinic acid| 2-phenyl-2-(2-piperidinyl)acetic acid,c(ccc1C(C(=O)O)C(NCC2)CC2)cc1,219.1259,C13H17NO2,"InChI=1S/C13H17NO2/c15-13(16)12(10-6-2-1-3-7-10)11-8-4-5-9-14-11/h1-3,6-7,11-12,14H,4-5,8-9H2,(H,15,16)",CAS_RN: 19395-41-6,86863,INGSNVSERUZOAK-UHFFFAOYSA-N,78360,DTXSID20864888,Positive/Negative,EA070101|EA070102|EA070103|EA070104|EA070105|EA070106|EA070107|EA070108|EA070109|EA070110|EA070111|EA070112|EA070113|EA070114,[M+H]+,CID35|HCD15|HCD30|HCD45|HCD60|HCD75|HCD90|HCD15|HCD30|HCD45|HCD60|HCD75|HCD90|CID35,84.0809:174.1279|220.1335:84.0808|220.1334:84.0808:174.1277|84.0809:220.1333:174.1277|84.0809:174.1279:56.0494|84.0808:174.1277:91.0542|84.0809:91.0542:129.0697|220.1334:84.0808|220.1334:84.0808:174.1277|84.0809:220.1333:174.1278|84.0809:174.1278:220.1336|84.0809:174.1278:91.0543|84.0809:91.0543:56.0495|84.0809:174.1278:67.0543,174.1278;129.0697;91.05425;84.0809;67.0543;56.04945,Eawag,EA070151|EA070152|EA070153|EA070158|EA070159,[M-H]-,CID35|HCD15|HCD30|HCD15|HCD30,174.1289|174.1295|174.1283|174.1289|174.1285,174.1289,Eawag
stpQQR924,"Aminopyrine|4-(dimethylamino)-1,5-dimethyl-2-phenyl-3-pyrazolin-3-one",c(ccc1N(N(C=2C)C)C(=O)C2N(C)C)cc1,231.1372,C13H17N3O,"InChI=1S/C13H17N3O/c1-10-12(14(2)3)13(17)16(15(10)4)11-8-6-5-7-9-11/h5-9H,1-4H3",CAS_RN: 58-15-1,6009,RMMXTBMQSGEXHJ-UHFFFAOYSA-N,5787,DTXSID7020504,Positive,EA070201|EA070202|EA070203|EA070204|EA070205|EA070206|EA070207|EA070208|EA070209|EA070210|EA070211|EA070212|EA070213|EA070214;UF410401|UF410402|UF410403|UF410404,[M+H]+;[M+H]+,CID35|HCD15|HCD30|HCD45|HCD60|HCD75|HCD90|HCD15|HCD30|HCD45|HCD60|HCD75|HCD90|CID35;HCD55|HCD80|CID35|CID55,113.1075:111.0918:187.0868|232.1448:113.1074:111.0917|113.1074:232.1447:111.0917|113.1074:97.0761:111.0918|97.0761:58.0652:111.0917|97.0761:58.0652:56.0495|97.0761:58.0652:56.0495|232.1447:113.1074:111.0917|113.1074:232.1448:111.0918|113.1074:97.0761:111.0918|97.0762:58.0652:98.084|97.0761:58.0652:56.0495|97.0761:58.0652:56.0495|113.1075:111.0918:187.0869;97.0761:113.1074:98.0839|97.0761:70.0651:72.0808|113.1074:187.0868:111.0917|113.1074:187.0867:111.0917,187.0868;113.1074;111.0917;98.08395;97.0761;72.0808;70.0651;58.0652;56.0495,Eawag;UFZ,NA,NA,NA,NA,NA,NA
stpQQR925,"Sucralose|1,6-Dichloro-1,6-dideoxy-beta-D-fructofuranosyl 4-chloro-4-deoxy-alpha-D-galactopyranoside |(2R,3R,4R,5R,6R)-2-[(2R,3S,4S,5S)-2,5-bis(chloromethyl)-3,4-bis(oxidanyl)oxolan-2-yl]oxy-5-chloranyl-6-(hydroxymethyl)oxane-3,4-diol",C(C1C(C(C(C(O1)OC2(C(C(C(O2)CCl)O)O)CCl)O)O)Cl)O,396.0146,C12H19Cl3O8,"InChI=1S/C12H19Cl3O8/c13-1-4-7(17)10(20)12(3-14,22-4)23-11-9(19)8(18)6(15)5(2-16)21-11/h4-11,16-20H,1-3H2/t4-,5-,6+,7-,8+,9-,10+,11-,12+/m1/s1",CAS_RN: 56038-13-2,71485,BAQAVOSOZGMPRM-QBMZZYIRSA-N,64561,DTXSID1040245,Positive/Negative,TUE00661|TUE00662,[M+Na]+,NA10.0V|NA20.0V,419.0042:337.075:221.019|419.0039:238.985:221.0188,337.075;238.985;221.0189,Env_Anal_Chem_U_Tuebingen,EA070351|EA070352|EA070358|EA070364;TUE00665|TUE00666|TUE00667,[M-H]-;[M-H]-,CID35|HCD15|HCD15|CID35;NA10.0V|NA20.0V|NA40.0V,359.03|395.0071|395.0073|359.0301;395.0068:359.0299:34.9686|34.9685:59.0136:395.0104|34.9686:59.0137:91.021,395.0072;359.03;91.021;59.01365;34.9686,Eawag;Env_Anal_Chem_U_Tuebingen
stpQQR926,"Pinoxaden|8-(2,6-diethyl-4-methylphenyl)-1,2,4,5-tetrahydro-7-oxo-7H-pyrazolo(1,2-d)(1,4,5)oxadiazepin-9-yl 2,2-dimethylpropanoate",CC(C)(C)C(=O)O/C2=C(/C(=O)N1CCOCCN12)c3c(CC)cc(C)cc3CC,400.2368,C23H32N2O4,"InChI=1S/C23H32N2O4/c1-7-16-13-15(3)14-17(8-2)18(16)19-20(26)24-9-11-28-12-10-25(24)21(19)29-22(27)23(4,5)6/h13-14H,7-12H2,1-6H3",CAS_RN: 243973-20-8,210326,MGOHCFMYLBAPRN-UHFFFAOYSA-N,182281,DTXSID8034823,Positive,EA070401|EA070402|EA070403|EA070404|EA070405|EA070406|EA070407|EA070408|EA070409|EA070410|EA070411|EA070412|EA070413|EA070414,[M+H]+,CID35|HCD15|HCD30|HCD45|HCD60|HCD75|HCD90|HCD15|HCD30|HCD45|HCD60|HCD75|HCD90|CID35,317.1864|401.2432:317.1858|317.1864:401.2439:57.0699|317.186:57.0699:289.1547|317.1858:289.1546:57.0699|57.0699:131.0856:289.1547|131.0856:57.0699:146.0967|401.2436:317.1859|317.1861:401.2431:57.0698|317.1862:57.0699:289.1546|317.1859:289.1545:57.0699|57.0698:131.0855:174.0912|131.0855:57.0698:105.0698|317.186,317.186;289.1546;174.0912;146.0967;131.08555;105.0698;57.0699,Eawag,NA,NA,NA,NA,NA,NA