NORMAN_ID,NAME,SMILES,NEUTRAL_EXACT_MASS,FORMULA,StdInChI,CAS_RN,PUBCHEM_CID,InChIKey,CHEMSPIDER_ID,DTXSID,Preferable Ionization,MB_Records Positive Ionization,Adduct Positive Ionization,Ionisation type and collision energy Positive Ionization,Fragments Positive Ionization,Simplified_fragments_Positive,Institute Positive Ionization,MB_Records Negative Ionization,Adduct Negative Ionization,Ionisation type and collision energy Negative Ionization,Fragments Negative Ionization,Simplified_fragments_Negative,Institute Negative Ionization
stpQQR856,"Terbutylazine|2-N-tert-butyl-6-chloro-4-N-ethyl-1,3,5-triazine-2,4-diamine",c1(nc(nc(n1)Cl)NCC)NC(C)(C)C,229.1089,C9H16ClN5,"InChI=1S/C9H16ClN5/c1-5-11-7-12-6(10)13-8(14-7)15-9(2,3)4/h5H2,1-4H3,(H2,11,12,13,14,15)",CAS_RN: 5915-41-3,22206,FZXISNSWEXTPMF-UHFFFAOYSA-N,20848,DTXSID4027608,Positive,AU367601|AU367602|AU367603|AU367604;SM841303;EA028401|EA028402|EA028403|EA028404|EA028405|EA028406|EA028407|EA028408|EA028409|EA028410|EA028411|EA028412|EA028413|EA028414;UF403201|UF403202|UF403203|UF403204,[M+H]+;[M+H]+;[M+H]+;[M+H]+,CID10|CID20|CID30|CID40;HCD35;CID35|HCD15|HCD30|HCD45|HCD60|HCD75|HCD90|HCD15|HCD30|HCD45|HCD60|HCD75|HCD90|CID35;HCD55|HCD80|CID35|CID55,230.1162:232.1135:174.0531|174.0531:176.0499:230.1162|174.0531:176.0499:132.0315|174.0531:132.0315:146.0219;174.0541:230.1167:96.0556;174.0543|230.1169|230.1167:174.0543:79.006|174.0544:230.1171:146.023|174.0542:132.0324:146.0228|174.0541:104.0011:68.0243|68.0244:104.0011:79.0058|230.1168:174.0542|230.1168:174.0543:132.0319|174.0542:230.1167:146.0229|174.0543:132.0324:146.0229|174.0542:104.0011:68.0244|104.001:68.0243:79.0058|174.0543;174.054:132.0323:146.0227|104.0009:174.0539:96.0555|174.0539:230.1166|174.0539,176.0499;174.05415;146.02285;132.0321;104.0011;96.05555;79.0058;68.02435,Athens_Univ;CASMI_2016;Eawag;UFZ,NA,NA,NA,NA,NA,NA
stpQQR857,Isoproturon-didemethyl|[4-(propan-2-yl)phenyl]urea|1-(4-Isopropylphenyl)urea,N(C(=O)N)c1ccc(cc1)C(C)C,178.1106,C10H14N2O,"InChI=1S/C10H14N2O/c1-7(2)8-3-5-9(6-4-8)12-10(11)13/h3-7H,1-2H3,(H3,11,12,13)",CAS_RN: 56046-17-4,185831,ABBKOIZWGCVCKE-UHFFFAOYSA-N,161537,DTXSID10204592,Positive,EA028501|EA028502|EA028503|EA028504|EA028505|EA028506|EA028507|EA028508|EA028509|EA028510|EA028511|EA028512|EA028513|EA028514,[M+H]+,CID35|HCD15|HCD30|HCD45|HCD60|HCD75|HCD90|HCD15|HCD30|HCD45|HCD60|HCD75|HCD90|CID35,137.0711:179.1178:136.1122|179.1182:137.0709:94.0651|179.1181:137.0711:94.0652|137.071:179.1178:94.0651|137.071:94.0652:120.0444|94.0652:137.071:120.0445|94.0652:77.0386:92.0495|179.118:137.071:94.0653|179.1181:137.0711:94.0651|137.0711:179.1182:94.0652|137.0711:94.0652:120.0445|94.0652:137.071:120.0444|94.0652:77.0386:92.0495|137.0711:179.118:136.1122,137.07105;136.1122;120.04445;94.0652;92.0495;77.0386,Eawag,NA,NA,NA,NA,NA,NA
stpQQR858,"Isoproturon|1,1-dimethyl-3-(4-propan-2-ylphenyl)urea",c1(ccc(C(C)C)cc1)NC(N(C)C)=O,206.1414,C12H18N2O1,"InChI=1S/C12H18N2O/c1-9(2)10-5-7-11(8-6-10)13-12(15)14(3)4/h5-9H,1-4H3,(H,13,15)",CAS_RN: 34123-59-6,36679,PUIYMUZLKQOUOZ-UHFFFAOYSA-N,33695,DTXSID1042077,Positive,AU351801|AU351802|AU351803|AU351804|AU351805;SM838102;EA028601|EA028602|EA028603|EA028604|EA028605|EA028606|EA028607|EA028608|EA028609|EA028610|EA028611|EA028612|EA028613|EA028614;UF400501|UF400502|UF400503|UF400504,[M+H]+;[M+H]+;[M+H]+;[M+H]+,CID10|CID20|CID30|CID40|CID50;HCD35;CID35|HCD15|HCD30|HCD45|HCD60|HCD75|HCD90|HCD15|HCD30|HCD45|HCD60|HCD75|HCD90|CID35;HCD55|HCD80|CID35|CID55,207.1486:208.1516:165.1011|207.1486:165.1013:134.0955|134.0957:165.1014:162.0891|134.0954:119.0721:118.0638|118.0649:119.0706:134.0958;72.0444:207.1492:165.1023;72.0444:165.1023:207.1495|207.1491:72.0442:165.1017|207.1491:72.0443:165.1021|72.0444:207.1487:165.1022|72.0444:165.1021:134.0963|72.0444:134.0964:91.0543|72.0444:134.0964:91.0542|207.1491:72.0443:165.102|207.1491:72.0443:165.1021|72.0444:207.1492:165.1022|72.0444:165.1022:134.0963|72.0444:134.0963:91.0541|72.0444:134.0963:91.0542|72.0444:165.1022:207.149;72.0442:165.1022:134.0963|72.0442:134.0963:107.0854|72.0442:165.1021:162.0912|72.0442:165.102:162.0912,165.1021;162.0912;134.0963;119.07135;118.06435;107.0854;91.0542;72.0444,Athens_Univ;CASMI_2016;Eawag;UFZ,NA,NA,NA,NA,NA,NA
stpQQR859,Atrazine-desisopropyl|Deisopropylatrazine|(4-amino-6-chloro-s-triazin-2-yl)-ethyl-amine,c1(nc(nc(n1)Cl)N)NCC,173.0468,C5H8ClN5,"InChI=1S/C5H8ClN5/c1-2-8-5-10-3(6)9-4(7)11-5/h2H2,1H3,(H3,7,8,9,10,11)",CAS_RN: 1007-28-9,13878,IVENSCMCQBJAKW-UHFFFAOYSA-N,13278,DTXSID0037495,Positive,AU372601|AU372602|AU372603|AU372604;SM841101;EA028701|EA028702|EA028703|EA028704|EA028705|EA028706|EA028707|EA028708|EA028709|EA028710|EA028711|EA028712|EA028713|EA028714;UF403001|UF403002|UF403003|UF403004,[M+H]+;[M+H]+;[M+H]+;[M+H]+,CID10|CID20|CID30|CID40;HCD35;CID35|HCD15|HCD30|HCD45|HCD60|HCD75|HCD90|HCD15|HCD30|HCD45|HCD60|HCD75|HCD90|CID35;HCD55|HCD80|CID35|CID55,174.0534:176.0503:175.0559|174.0534:132.0314:176.0499|132.0314:174.0532:146.0215|146.0211:132.0317:174.0532;174.0542:96.0556:132.0323;174.0542:146.0228:132.0323|174.054|174.0541:132.0323:79.0058|174.0541:132.0322:79.0057|174.0543:132.0323:104.001|104.001:68.0243:132.0322|68.0244:104.0011:79.0058|174.0541|174.0541:132.0323:79.0058|174.0541:132.0323:96.0556|174.0542:132.0323:104.001|104.001:68.0243:132.0323|104.001:68.0243:79.0058|174.0541:146.0228:132.0323;174.0541:132.0323:96.0556|104.0009:96.0555:132.0322|174.0539:146.0227:132.0322|146.0227:132.0322:79.0056,146.0227;132.0323;104.001;96.0556;79.0058;68.0243,Athens_Univ;CASMI_2016;Eawag;UFZ,NA,NA,NA,NA,NA,NA
stpQQR860,"Atrazine|6-chloro-N-ethyl-N'-isopropyl-1,3,5-triazine-2,4-diamine|6-chloranyl-N4-ethyl-N2-propan-2-yl-1,3,5-triazine-2,4-diamine",c1(nc(nc(n1)Cl)NCC)NC(C)C,215.0932,C8H14Cl1N5,"InChI=1S/C8H14ClN5/c1-4-10-7-12-6(9)13-8(14-7)11-5(2)3/h5H,4H2,1-3H3,(H2,10,11,12,13,14)",CAS_RN: 1912-24-9,2256,MXWJVTOOROXGIU-UHFFFAOYSA-N,2169,DTXSID9020112,Positive,AU310901|AU310902|AU310903|AU310904|AU310905;SM841401;EA028801|EA028802|EA028803|EA028804|EA028805|EA028806|EA028807|EA028808|EA028809|EA028810|EA028811|EA028812|EA028813|EA028814;UF403301|UF403302|UF403303|UF403304;UA002901|UA002903,[M+H]+;[M+H]+;[M+H]+;[M+H]+;[M+H]+,CID10|CID20|CID30|CID40|CID50;HCD35;CID35|HCD15|HCD30|HCD45|HCD60|HCD75|HCD90|HCD15|HCD30|HCD45|HCD60|HCD75|HCD90|CID35;HCD55|HCD80|CID35|CID55;CID35|CID35,216.1006:218.0976:217.1033|174.0531:216.1005:176.0501|174.0531:132.0316:176.0501|146.022:132.0319:174.0532|146.0217:132.0319:138.076;216.1011:174.0541:96.0556;174.0543:138.1026:96.0556|216.1012|216.1012:174.0546:96.0556|174.0544:216.1014:104.001|174.0541:104.0011:132.0325|104.0011:174.0537:68.0244|104.001:68.0243:79.0058|216.1012|216.1012:174.0541:96.0554|174.0544:216.1012:104.0011|174.0542:104.001:132.0323|174.0542:104.0011:68.0243|104.0011:68.0243:79.0058|174.0542:138.1026:96.0556;174.054:216.1009:104.0009|104.0009:174.054:96.0555|174.0539:216.1009:138.1026|174.054:138.1026:96.0556;174.0541:216.101:96.0556|174.0539:216.1006:138.1023,176.0501;174.0541;146.02185;138.1026;138.076;132.0319;104.00105;96.0556;79.0058;68.0243,Athens_Univ;CASMI_2016;Eawag;UFZ;UFZ_Additional_Specs,NA,NA,NA,NA,NA,NA
stpQQR861,"Diuron-desdimethyl|Urea, (3,4-dichlorophenyl)-|(3,4-dichlorophenyl)urea",c1(cc(c(Cl)cc1)Cl)NC(N)=O,203.9857,C7H6Cl2N2O,"InChI=1S/C7H6Cl2N2O/c8-5-2-1-4(3-6(5)9)11-7(10)12/h1-3H,(H3,10,11,12)",CAS_RN: 155998,16854,CYESCLHCWJKRKM-UHFFFAOYSA-N,15972,DTXSID2041468,Positive/Negative,AU400301|AU400302|AU400303|AU400304|AU400305;SM843003;EA028901|EA028902|EA028903|EA028904|EA028905|EA028906|EA028907|EA028908|EA028909|EA028910|EA028911|EA028912|EA028913|EA028914;UF405201|UF405202|UF405203|UF405204,[M+H]+;[M+H]+;[M+H]+;[M+H]+,CID10|CID20|CID30|CID40|CID50;HCD35;CID35|HCD15|HCD30|HCD45|HCD60|HCD75|HCD90|HCD15|HCD30|HCD45|HCD60|HCD75|HCD90|CID35;HCD55|HCD80|CID35|CID55,204.9926:206.9893:161.986|127.0173:161.9857:163.9828|127.0173:129.0139:159.9702|127.0173:129.0139:132.96|127.0175:129.0146:132.9599;204.993:161.9871:127.0183;161.9872:187.9664:127.0183|204.9929:160.9788:187.9672|204.9932:161.9873:127.0185|161.9872:127.0184:204.9933|127.0184:161.9873:159.9716|127.0185:159.9717:161.9872|127.0184:159.9716:132.9607|204.993:161.9873:187.9659|204.9931:161.9873:187.9666|161.9873:127.0184:204.9931|127.0185:161.9873:159.9716|127.0184:159.9716:161.9873|127.0185:159.9717:132.9608|161.9873:187.9666:127.0185;127.0182:161.9872:159.9715|127.0182:159.9715:161.9872|161.9872:187.9665:127.0183|161.9871:187.9665:127.0182,187.9665;163.9828;161.9872;160.9788;159.9716;132.96035;129.0139;127.01835,Athens_Univ;CASMI_2016;Eawag;UFZ,AU400351|AU400352;SM843053;EA028951|EA028952|EA028953|EA028954|EA028955|EA028956|EA028958|EA028959|EA028960|EA028961|EA028962;UF405251|UF405252|UF405253|UF405254,[M-H]-;[M-H]-;[M-H]-;[M-H]-,CID10|CID20;HCD35;CID35|HCD15|HCD30|HCD45|HCD60|HCD75|HCD15|HCD30|HCD45|HCD60|HCD75;HCD55|HCD80|CID35|CID55,159.9713:161.9679:202.977|159.9709:161.9682:160.9742;159.9726;159.9728|202.9794:159.9733|159.973|159.973|159.9731|159.9724:202.9791|202.9783:159.9728|159.9729|159.9728|159.9728|159.973;159.9727|159.9725|159.9726|159.9726,202.9787;161.96805;160.9742;159.9728,Athens_Univ;CASMI_2016;Eawag;UFZ
stpQQR862,"Sulcotrione|2-(2-chloranyl-4-methylsulfonyl-phenyl)carbonylcyclohexane-1,3-dione",O=C1CCCC(=O)C1C(=O)c1ccc(S(=O)(=O)C)cc1Cl,328.0167,C14H13Cl1O5S1,"InChI=1S/C14H13ClO5S/c1-21(19,20)8-5-6-9(10(15)7-8)14(18)13-11(16)3-2-4-12(13)17/h5-7,13H,2-4H2,1H3",CAS_RN: 99105-77-8,91760,PQTBTIFWAXVEPB-UHFFFAOYSA-N,82858,DTXSID9058230,Positive/Negative,SM865801;EA029001|EA029002|EA029003|EA029004|EA029005|EA029006|EA029007|EA029008|EA029009|EA029010|EA029011|EA029012|EA029013|EA029014;UF401301|UF401302|UF401303|UF401304,[M+H]+;[M+H]+;[M+H]+,HCD35;CID35|HCD15|HCD30|HCD45|HCD60|HCD75|HCD90|HCD15|HCD30|HCD45|HCD60|HCD75|HCD90|CID35;HCD55|HCD80|CID35|CID55,329.0245:157.0495:111.044;139.0391:293.0477:111.0441|329.0242:139.0389:157.0492|139.0391:329.0242:157.0495|139.039:111.0441:157.0494|111.0441:68.9971:139.039|68.9971:111.044:139.0389|68.9971:111.044:178.9896|329.0243:139.0389:157.0493|139.039:329.0242:157.0495|139.0389:111.044:157.0494|111.044:68.9971:139.0389|68.9971:111.044:139.0389|68.9971:111.044:149.9867|139.0389:293.0473:111.044;111.0439:139.0389:157.0496|111.044:214.0623:139.0388|139.0389:293.0478:111.044|139.0389:293.0479:111.044,293.04775;214.0623;178.9896;157.04945;149.9867;139.0389;111.044;68.9971,CASMI_2016;Eawag;UFZ,SM865851;EA029051|EA029052|EA029053|EA029054|EA029055|EA029056|EA029058|EA029059|EA029060|EA029061|EA029062|EA029063|EA029064;UF401351|UF401353|UF401354,[M-H]-;[M-H]-;[M-H]-,HCD35;CID35|HCD15|HCD30|HCD45|HCD60|HCD75|HCD15|HCD30|HCD45|HCD60|HCD75|HCD90|CID35;HCD55|CID35|CID55,291.0334:212.0479:215.0351;291.0331:212.0474|291.0333:327.0094|291.0331|291.0337:249.0231:215.0347|215.0351:249.0225:212.0483|215.0347|291.0329:327.0092|291.0328|291.0328:249.0227:215.0344|215.0348:249.0225:212.0481|215.0339|215.0349|291.0328;197.9555|291.033|197.9551:291.0339,327.0093;291.0331;249.0226;215.03475;212.048;197.9553,CASMI_2016;Eawag;UFZ
stpQQR863,"Diuron|3-(3,4-dichlorophenyl)-1,1-dimethyl-urea",c1(c(ccc(c1)NC(N(C)C)=O)Cl)Cl,232.0165,C9H10Cl2N2O1,"InChI=1S/C9H10Cl2N2O/c1-13(2)9(14)12-6-3-4-7(10)8(11)5-6/h3-5H,1-2H3,(H,12,14)",CAS_RN: 330-54-1,3120,XMTQQYYKAHVGBJ-UHFFFAOYSA-N,3008,DTXSID0020446,Positive/Negative,AU341002|AU341003|AU341004|AU341005;SM877701;EA029201|EA029202|EA029203|EA029204|EA029205|EA029206|EA029207|EA029208|EA029209|EA029210|EA029211|EA029212|EA029213|EA029214,[M+H]+;[M+H]+;[M+H]+,CID20|CID30|CID40|CID50;HCD35;CID35|HCD15|HCD30|HCD45|HCD60|HCD75|HCD90|HCD15|HCD30|HCD45|HCD60|HCD75|HCD90|CID35,233.0237:235.021:187.9652|159.9703:161.9672:187.9652|159.9703:161.9672:132.9598|132.9595:125.0014:134.9565;72.0445:233.0244:159.9716;72.0444|233.0245:72.0443|233.0245:72.0444:187.9659|72.0444:233.0238:159.9714|72.0444:159.9715:187.9665|72.0444:159.9714:132.9608|72.0444:159.9714:132.9606|233.0244:72.0443|233.0244:72.0444:187.9664|72.0444:233.0241:187.9665|72.0444:159.9715:187.9664|72.0444:159.9715:132.9606|72.0444:159.9715:132.9606|72.0444:187.9661,187.96625;161.9672;159.97145;134.9565;132.9606;125.0014;72.0444,Athens_Univ;CASMI_2016;Eawag,AU341051|AU341052|AU341053|AU341054;SM877753;EA029251|EA029252|EA029253|EA029254|EA029255|EA029256|EA029257|EA029258|EA029259|EA029260|EA029261|EA029262|EA029263|EA029264;UF400451|UF400452|UF400453|UF400454,[M-H]-;[M-H]-;[M-H]-;[M-H]-,CID10|CID20|CID30|CID40;HCD35;CID35|HCD15|HCD30|HCD45|HCD60|HCD75|HCD90|HCD15|HCD30|HCD45|HCD60|HCD75|HCD90|CID35;HCD55|HCD80|CID35|CID55,231.0102:233.0077:232.0129|231.0107:185.9524:187.9495|149.9747:185.9521:187.9492|149.9764;231.0098:185.952:159.9727;185.9521:159.9726:231.0097|231.0098:185.9515|231.0097:185.9518:159.9728|185.952:231.0098:149.9751|185.9519:149.9751:231.01|149.9751:185.9517|149.9757|231.0095:185.9511|231.0095:185.9517:159.9725|185.9518:231.0094:149.9751|185.9517:149.9752:231.0094|149.975:185.9514|149.9755|185.952:159.9725:149.9749;231.0099|231.0099:197.9499|185.9518:197.9498|185.9518,231.0098;197.94985;187.94935;185.9518;159.9726;149.9751,Athens_Univ;CASMI_2016;Eawag;UFZ
stpQQR864,Diazinon|diethoxy-(2-isopropyl-6-methyl-pyrimidin-4-yl)oxy-thioxo-phosphorane,O(c1nc(nc(c1)C)C(C)C)P(OCC)(OCC)=S,304.1011,C12H21N2O3P1S1,"InChI=1S/C12H21N2O3PS/c1-6-15-18(19,16-7-2)17-11-8-10(5)13-12(14-11)9(3)4/h8-9H,6-7H2,1-5H3",CAS_RN: 333-41-5,3017,FHIVAFMUCKRCQO-UHFFFAOYSA-N,2909,DTXSID9020407,Positive,AU312401|AU312402|AU312403|AU312404|AU312405;SM877901;EA029301|EA029302|EA029303|EA029304|EA029305|EA029306|EA029307|EA029308|EA029309|EA029310|EA029311|EA029312|EA029313|EA029314;UF400601|UF400602|UF400603,[M+H]+;[M+H]+;[M+H]+;[M+H]+,CID10|CID20|CID30|CID40|CID50;HCD35;CID35|HCD15|HCD30|HCD45|HCD60|HCD75|HCD90|HCD15|HCD30|HCD45|HCD60|HCD75|HCD90|CID35;HCD55|HCD80|CID35,305.1119:307.1064:169.0786|169.0788:305.1085:153.1014|169.0789:153.1013:249.0453|169.0787:153.1013:135.0907|169.0787:153.1014:135.0908;305.1085:169.0794:153.1023;169.0797:153.1026:277.0773|305.1087:169.0795|305.1082:169.0795:153.1023|169.0796:153.1024:96.9508|169.0794:153.1022:96.9507|169.0795:100.0216:96.9509|100.0216:96.9508:114.9614|305.1086:169.079:153.1021|305.1087:169.0795:153.1023|169.0795:153.1023:96.9508|169.0796:153.1024:96.9509|169.0795:100.0216:96.9508|100.0216:96.9508:114.9614|169.0795:153.1023:277.0771;169.0794:153.1021:96.9507|100.0215:169.0794:96.9507|169.0793:153.1021:100.0213,277.0772;249.0453;169.0794;153.10225;135.09075;114.9614;100.0216;96.9508,Athens_Univ;CASMI_2016;Eawag;UFZ,NA,NA,NA,NA,NA,NA
stpQQR865,"Diuron-desmethyl|DCPMU|1-(3,4-dichlorophenyl)-3-methyl-urea",c1(cc(c(Cl)cc1)Cl)NC(NC)=O,218.0014,C8H8Cl2N2O,"InChI=1S/C8H8Cl2N2O/c1-11-8(13)12-5-2-3-6(9)7(10)4-5/h2-4H,1H3,(H2,11,12,13)",CAS_RN: 3567-62-2,19113,IDQHRQQSSQDLTR-UHFFFAOYSA-N,18040,DTXSID3042180,Positive/Negative,AU400101|AU400102|AU400103|AU400104|AU400105;EA029401|EA029402|EA029403|EA029404|EA029405|EA029406|EA029407|EA029408|EA029409|EA029410|EA029411|EA029412|EA029413|EA029414,[M+H]+;[M+H]+,CID10|CID20|CID30|CID40|CID50;CID35|HCD15|HCD30|HCD45|HCD60|HCD75|HCD90|HCD15|HCD30|HCD45|HCD60|HCD75|HCD90|CID35,219.008:221.0051:161.9862|161.9862:127.0174:163.9832|127.0174:129.0144:161.9862|127.0174:129.0144:128.0205|127.0174:129.0144:128.0205;161.9874:127.0187:144.9609|219.0088:161.9871|219.0089:161.9874:127.0186|161.9873:127.0185:219.0083|127.0184:161.9872:159.9714|127.0184:161.9871:58.0287|127.0185:58.0288:159.9715|219.0088:161.9872:127.0179|219.0089:161.9873:127.0183|161.9873:127.0184:219.0086|127.0184:161.9873:58.0287|127.0185:161.9872:159.9717|127.0184:58.0287:161.9873|161.9872:127.0184:187.9664,187.9664;163.9832;161.9872;159.9715;144.9609;129.0144;128.0205;127.0184;58.0287,Athens_Univ;Eawag,AU400151|AU400152|AU400153|AU400154;EA029451|EA029452|EA029453|EA029454|EA029455|EA029456|EA029457|EA029458|EA029459|EA029460|EA029461|EA029462|EA029463|EA029464,[M-H]-;[M-H]-,CID10|CID20|CID30|CID40;CID35|HCD15|HCD30|HCD45|HCD60|HCD75|HCD90|HCD15|HCD30|HCD45|HCD60|HCD75|HCD90|CID35,159.9713:161.9681:216.9931|159.9711:161.9677:160.9738|159.9707:161.9672:123.9941|159.9707;159.9728|159.9726:216.994|159.9725:216.9941|159.9725:123.996|159.9724:123.9959|159.9725:123.9955|159.972|159.9726:216.9938|159.9726:216.9936|159.9726:123.9957|159.9725:123.9958|159.9725|159.9726|159.9727,216.9938;161.9677;160.9738;159.9725;123.99575,Athens_Univ;Eawag
stpQQR866,"N,N-Dimethyl-N'-phenylsulfamide|DMSA",S(Nc1ccccc1)(N(C)C)(=O)=O,200.0619,C8H12N2O2S,"InChI=1S/C8H12N2O2S/c1-10(2)13(11,12)9-8-6-4-3-5-7-8/h3-7,9H,1-2H3",CAS_RN: 4710-17-2,78441,QCDQDISRALTLNQ-UHFFFAOYSA-N,70809,DTXSID60197041,Positive/Negative,AU204201|AU204202|AU204203;EA029601|EA029602|EA029603|EA029604|EA029605|EA029606|EA029607|EA029608|EA029609|EA029610|EA029611|EA029612|EA029613|EA029614,[M+H]+;[M+H]+,CID10|CID20|CID30;CID35|HCD15|HCD30|HCD45|HCD60|HCD75|HCD90|HCD15|HCD30|HCD45|HCD60|HCD75|HCD90|CID35,201.0685:137.1063:202.071|137.1066:122.0827:121.088|122.0832:120.0793:121.0749;137.1075:94.0652:93.0573|201.0694:137.1074:93.0573|92.0496:137.1075:93.0574|92.0495:93.0573:137.1075|92.0496:93.0574:65.0386|92.0495:65.0386:93.0573|92.0495:65.0386:93.0573|201.0694:137.1075:93.0574|92.0496:137.1074:93.0574|92.0495:93.0573:137.1073|92.0495:93.0573:65.0386|92.0495:65.0386:93.0573|92.0495:65.0386:93.0573|137.1075:94.0652:93.0574,137.10745;122.08295;121.088;121.0749;120.0793;94.0652;93.0573;92.0495;65.0386,Athens_Univ;Eawag,AU204251|AU204252;EA029651|EA029652|EA029653|EA029654|EA029655|EA029656|EA029657|EA029658|EA029659|EA029660|EA029661|EA029662|EA029664,[M-H]-;[M-H]-,CID10|CID20;CID35|HCD15|HCD30|HCD45|HCD60|HCD75|HCD90|HCD15|HCD30|HCD45|HCD60|HCD75|CID35,199.055:155.0046:200.061|155.0043:199.0536;155.005:91.043:156.0131|199.0551|199.0547:155.0048|199.0553:91.0429:155.0042|91.0428|91.0427|91.043|199.0547|199.0549|199.0549:155.0047:91.0429|91.0428|91.0427|155.0048:91.0429:156.0124,199.0549;156.01275;155.0047;91.0429,Athens_Univ;Eawag