NORMAN_ID,NAME,SMILES,NEUTRAL_EXACT_MASS,FORMULA,StdInChI,CAS_RN,PUBCHEM_CID,InChIKey,CHEMSPIDER_ID,DTXSID,Preferable Ionization,MB_Records Positive Ionization,Adduct Positive Ionization,Ionisation type and collision energy Positive Ionization,Fragments Positive Ionization,Simplified_fragments_Positive,Institute Positive Ionization,MB_Records Negative Ionization,Adduct Negative Ionization,Ionisation type and collision energy Negative Ionization,Fragments Negative Ionization,Simplified_fragments_Negative,Institute Negative Ionization
stpQQR485,5-Methylbenzotriazole|5-Methyl-1H-benzotriazole|5-Methyl-2H-benzotriazole,CC1=CC=C2NN=NC2=C1,133.064,C7H7N3,"InChI=1S/C7H7N3/c1-5-2-3-6-7(4-5)9-10-8-6/h2-4H,1H3,(H,8,9,10)",CAS_RN: 136-85-6,8705,LRUDIIUSNGCQKF-UHFFFAOYSA-N,8381,DTXSID1038743,Positive/Negative,AU405101|AU405102;SM821601;SM880101;EA016701|EA016702|EA016703|EA016704|EA016705|EA016706|EA016707|EA016708|EA016709|EA016710|EA016711|EA016712|EA016713|EA016714;TUE00031|TUE00032|TUE00033,[M+H]+;[M+H]+;[M+H]+;[M+H]+;[M+H]+,CID10|CID20;HCD35;HCD35;CID35|HCD15|HCD30|HCD45|HCD60|HCD75|HCD90|HCD15|HCD30|HCD45|HCD60|HCD75|HCD90|CID35;NA10.0V|NA20.0V|NA40.0V,134.0715:135.0746|134.0713:135.0742;134.0713:79.0543:106.0651;134.0712:79.0542:106.0651;134.0713:106.0651:79.0542|134.0714|134.0713:77.0386:79.0543|134.0715:106.0653:79.0543|134.0713:79.0543:106.0652|134.0714:79.0543:77.0386|134.0713:77.0386:79.0542|134.0713:79.0544|134.0714:106.0651:79.0544|134.0714:106.0651:79.0542|134.0713:79.0543:106.0652|134.0713:79.0543:77.0386|134.0713:77.0386:79.0543|134.0713:106.0652:79.0542;134.0713:79.0543:77.0386|77.0387:79.0543:134.0712|77.0387:51.0227:53.0385,106.0651;79.0543;77.0386;53.0385;51.0227,Athens_Univ;CASMI_2016;CASMI_2016;Eawag;Env_Anal_Chem_U_Tuebingen,EA016751|EA016752|EA016753|EA016754|EA016755|EA016756|EA016757|EA016758|EA016759|EA016760|EA016761|EA016762|EA016763|EA016764;TUE00035|TUE00036|TUE00037,[M-H]-;[M-H]-,CID35|HCD15|HCD30|HCD45|HCD60|HCD75|HCD90|HCD15|HCD30|HCD45|HCD60|HCD75|HCD90|CID35;NA10.0V|NA20.0V|NA40.0V,132.0568:103.0425:104.0508|132.0569|132.0568|132.0569:104.0505:103.0428|132.0568:104.0506:103.0426|132.0568:103.0428:104.0506|132.0568:103.0426:104.0507|132.0569|132.0569|132.0569:104.0503|132.0568:103.0426:104.0502|132.0568:103.0425:104.0503|132.0569:104.0506:103.0429|132.0567:104.0502:103.0423;132.0567:103.0426:104.0504|132.0564:103.0426:64.0192|64.019:88.0192:50.003,132.0568;104.0505;103.0426;88.0192;64.0191;50.003,Eawag;Env_Anal_Chem_U_Tuebingen
stpQQR486,Ethyl-4-dimethylaminobenzoate|Ethyl 4-dimethylaminobenzoate|Ethyl 4-(dimethylamino)benzoate,CCOC(=O)C1=CC=C(C=C1)N(C)C,193.11028,C11H15NO2,"InChI=1S/C11H15NO2/c1-4-14-11(13)9-5-7-10(8-6-9)12(2)3/h5-8H,4H2,1-3H3",CAS_RN: 97003-31-1,25127,FZUGPQWGEGAKET-UHFFFAOYSA-N,23472,DTXSID2044763,Positive,SM880301,[M+H]+,HCD35,194.1175:166.0863:151.0628,166.0863;151.0628,CASMI_2016,NA,NA,NA,NA,NA,NA
stpQQR487,p-Toluenesulfonamide|4-methylbenzenesulfonimidic acid|4-methylbenzenesulfonimidic acid,CC1=CC=C(C=C1)S(N)(=O)=O,171.0354,C7H9NO2S,"InChI=1S/C7H9NO2S/c1-6-2-4-7(5-3-6)11(8,9)10/h2-5H,1H3,(H2,8,9,10)",CAS_RN: 70-55-3,6269,LMYRWZFENFIFIT-UHFFFAOYSA-N,6033,DTXSID8029105,Positive/Negative,SM880502;EQ361801|EQ361802|EQ361803|EQ361804|EQ361805|EQ361806|EQ361807|EQ361808|EQ361809;UF418501|UF418502|UF418503|UF418504,[M+H]+;[M+H]+;[M+H]+,HCD35;HCD15|HCD30|HCD45|HCD60|HCD75|HCD90|HCD120|HCD150|HCD180;HCD55|HCD80|CID35|CID55,91.0542:119.0604:109.0648;155.0162:119.0604:109.0648|119.0604:155.0161:109.0648|119.0604:91.0542:109.0649|91.0542:119.0604:109.0649|91.0542:65.0386:119.0604|91.0542:65.0386:119.0605|65.0386:91.0543:63.023|65.0386:91.0543:63.023|65.0386:63.023:51.023;119.0607:91.0545|91.0544:119.0607|155.0167:119.0608:91.0545|155.0166:119.0608:91.0545,155.0164;119.0604;109.0648;91.0543;65.0386;63.023;51.023,CASMI_2016;Eawag;UFZ,EQ361851|EQ361852|EQ361853|EQ361854|EQ361855|EQ361856|EQ361857|EQ361858|EQ361859,[M-H]-,HCD15|HCD30|HCD45|HCD60|HCD75|HCD90|HCD120|HCD150|HCD180,170.0282:106.0662:171.0122|170.0282:106.0662:171.0122|170.0282:106.0662:79.9812|106.0662:79.9812:170.0282|106.0662:79.9812:78.9733|78.9733:61.9706:79.9812|61.9706:63.9624:78.9733|63.9624:61.9706:78.9733|63.9624:61.9706:78.9733,170.0282;106.0662;79.9812;78.9733;63.9624;61.9706,Eawag
stpQQR488,Tri(butoxyethyl)phosphate|Tris(2-butoxyethyl) phosphate,CCCCOCCOP(=O)(OCCOCCCC)OCCOCCCC,398.24334,C18H39O7P,"InChI=1S/C18H39O7P/c1-4-7-10-20-13-16-23-26(19,24-17-14-21-11-8-5-2)25-18-15-22-12-9-6-3/h4-18H2,1-3H3",CAS_RN: 78-51-3,6540,WTLBZVNBAKMVDP-UHFFFAOYSA-N,6292,DTXSID5021758,Positive,SM824402;SM880602,[M+H]+;[M+H]+,HCD35;HCD35,299.1621:399.2511:199.0731;57.0701:299.1619:399.2508,299.162;199.0731;57.0701,CASMI_2016;CASMI_2016,NA,NA,NA,NA,NA,NA
stpQQR489,Tri-isobutylphosphate|Triisobutyl phosphate|Tris(2-methylpropyl) phosphate,CC(C)COP(=O)(OCC(C)C)OCC(C)C,266.1647,C12H27O4P,"InChI=1S/C12H27O4P/c1-10(2)7-14-17(13,15-8-11(3)4)16-9-12(5)6/h10-12H,7-9H2,1-6H3",CAS_RN: 126-71-6,31355,HRKAMJBPFPHCSD-UHFFFAOYSA-N,29088,DTXSID8040698,Positive,SM824801;SM880801;UF418803|UF418804,[M+H]+;[M+H]+;[M+H]+,HCD35;HCD35;CID35|CID55,98.9842:155.0468:57.0701;98.9842:155.0468:57.0701;98.9845:155.0474|98.9845:155.0474,155.0471;98.98435;57.0701,CASMI_2016;CASMI_2016;UFZ,NA,NA,NA,NA,NA,NA
stpQQR490,"TDCPP|Tris(1,3-dichloropropan-2-yl) phosphate",ClCC(CCl)OP(=O)(OC(CCl)CCl)OC(CCl)CCl,427.88391,C9H15Cl6O4P,"InChI=1S/C9H15Cl6O4P/c10-1-7(2-11)17-20(16,18-8(3-12)4-13)19-9(5-14)6-15/h7-9H,1-6H2",CAS_RN: 13674-87-8,26177,ASLWPAWFJZFCKF-UHFFFAOYSA-N,24388,DTXSID9026261,Positive,SM819401;SM880902,[M+H]+;[M+H]+,HCD35;HCD35,98.9843:318.9226:208.9534;98.9842:318.9224:208.9533,318.9225;208.95335;98.98425,CASMI_2016;CASMI_2016,NA,NA,NA,NA,NA,NA
stpQQR491,Tris(1-chloro-2-propyl)phosphate|Tris(1-chloropropan-2-yl) phosphate,CC(CCl)OP(=O)(OC(C)CCl)OC(C)CCl,326.00083,C9H18Cl3O4P,"InChI=1S/C9H18Cl3O4P/c1-7(4-10)14-17(13,15-8(2)5-11)16-9(3)6-12/h7-9H,4-6H2,1-3H3",CAS_RN: 98112-32-4,26176,KVMPUXDNESXNOH-UHFFFAOYSA-N,24387,DTXSID5026259,Positive,SM881002,[M+H]+,HCD35,98.9842:174.9922:251.0002,251.0002;174.9922;98.9842,CASMI_2016,NA,NA,NA,NA,NA,NA
stpQQR492,2-Naphthalene sulfonic acid|Naphthalene-2-sulfonic acid,OS(=O)(=O)C1=CC2=CC=CC=C2C=C1,208.01942,C10H8O3S,"InChI=1S/C10H8O3S/c11-14(12,13)10-6-5-8-3-1-2-4-9(8)7-10/h1-7H,(H,11,12,13)",CAS_RN: 120-18-3,8420,KVBGVZZKJNLNJU-UHFFFAOYSA-N,8113,DTXSID5044788,Positive/Negative,EA065301|EA065302|EA065303|EA065304|EA065305|EA065306|EA065307|EA065308|EA065309|EA065310|EA065311|EA065312|EA065313|EA065314,[M+H]+,CID35|HCD15|HCD30|HCD45|HCD60|HCD75|HCD90|HCD15|HCD30|HCD45|HCD60|HCD75|HCD90|CID35,128.062:191.0162:145.0648|209.0267:128.062:191.0164|128.062:209.0266:155.0603|128.062:155.0604:145.065|128.062:155.0603:103.0543|128.062:155.0603:103.0541|128.062:155.0603:127.0542|209.0265:128.062:155.0599|128.0619:209.0265:155.0602|128.0619:155.0602:145.0647|128.0619:155.0602:145.0646|128.062:155.0603:127.0542|128.0619:155.0602:127.0542|128.062:191.016:145.0648,191.0162;155.0603;145.0648;128.062;127.0542;103.0542,Eawag,SM881155;EA065351|EA065352|EA065353|EA065354|EA065355|EA065356|EA065357|EA065358|EA065359|EA065360|EA065361|EA065362|EA065363,[M-H]-;[M-H]-,HCD35;CID35|HCD15|HCD30|HCD45|HCD60|HCD75|HCD90|HCD15|HCD30|HCD45|HCD60|HCD75|HCD90,207.0122:143.0502:118.9924;143.0504:207.012:79.9575|207.0116|207.012|207.012:143.0503:79.9572|207.0116:143.05:79.9573|143.0503:79.9574:207.0122|143.0501:79.9573:115.0558|207.0121|207.012|207.0122:143.0502:79.9575|207.0121:143.0502:79.9574|143.0501:79.9574:207.0116|143.0502:79.9573:115.0553,207.012;143.0502;118.9924;115.05555;79.9574,CASMI_2016;Eawag
stpQQR493,2-Isopropyl-6-methyl-pyrimidin-4-ol|6-Methyl-2-propan-2-yl-1H-pyrimidin-4-one,CC(C)C1=NC(O)=CC(C)=N1,152.09496,C8H12N2O,"InChI=1S/C8H12N2O/c1-5(2)8-9-6(3)4-7(11)10-8/h4-5H,1-3H3,(H,9,10,11)",CAS_RN: 2814-20-2,17777,AJPIUNPJBFBUKK-UHFFFAOYSA-N,16799,DTXSID1027502,Positive,AU207101|AU207102|AU207103|AU207104;SM881401;EA270601|EA270602|EA270603|EA270604|EA270605|EA270606|EA270607|EA270608|EA270609|EA270610|EA270611|EA270612|EA270613|EA270614;UF419501|UF419502|UF419503|UF419504,[M+H]+;[M+H]+;[M+H]+;[M+H]+,CID10|CID20|CID30|CID40;HCD35;CID35|HCD15|HCD30|HCD45|HCD60|HCD75|HCD90|HCD15|HCD30|HCD45|HCD60|HCD75|HCD90|CID35;HCD55|HCD80|CID35|CID55,153.1019:154.1044:155.1068|153.1019:154.1044:137.0701|137.07:153.1019:138.0766|137.0698:138.0744:153.1002;153.1022:84.0444:70.0652;153.1023:84.0444:70.0652|153.1022:84.0446:138.0789|153.1022:84.0446:137.0715|153.1022:84.0444:70.0652|153.1022:84.0444:70.0651|84.0444:153.102:70.0651|84.0444:70.0651:153.102|153.1022:84.044:137.0704|153.1022:84.0444:137.0708|153.1022:84.0444:70.0651|153.1022:84.0444:70.0651|84.0444:153.1022:70.0651|84.0444:70.0651:153.1021|153.1022:84.0444:70.0651;153.1026:84.0446:70.0653|84.0445:153.1026:70.0652|153.1026:84.0446:70.0653|84.0445:153.1027:70.0653,138.0766;137.07025;84.0444;70.0651,Athens_Univ;CASMI_2016;Eawag;UFZ,NA,NA,NA,NA,NA,NA
stpQQR494,Diphenylphosphate|Diphenyl hydrogen phosphate,OP(=O)(OC1=CC=CC=C1)OC1=CC=CC=C1,250.0395,C12H11O4P,"InChI=1S/C12H11O4P/c13-17(14,15-11-7-3-1-4-8-11)16-12-9-5-2-6-10-12/h1-10H,(H,13,14)",CAS_RN: 838-85-7,13282,ASMQGLCHMVWBQR-UHFFFAOYSA-N,12722,DTXSID1048207,Positive/Negative,SM822501;SM881501,[M+H]+;[M+H]+,HCD35;HCD35,251.0469:95.0492:153.0699;251.0468:95.0492:153.0699,153.0699;95.0492,CASMI_2016;CASMI_2016,SM822551;SM881554,[M-H]-;[M-H]-,HCD35;HCD35,249.0323:154.9904:173.0008;249.0322:154.9904:173.0009,249.03225;173.00085;154.9904,CASMI_2016;CASMI_2016
stpQQR495,"2-(Methylthio)benzothiazole|2-methylsulfanyl-1,3-benzothiazole",CSC1=NC2=CC=CC=C2S1,181.00199,C8H7NS2,"InChI=1S/C8H7NS2/c1-10-8-9-6-4-2-3-5-7(6)11-8/h2-5H,1H3",CAS_RN: 615-22-5,11989,UTBVIMLZIRIFFR-UHFFFAOYSA-N,11494,DTXSID70274236,Positive,AU405806;SM881701;EQ364601|EQ364602|EQ364603|EQ364604|EQ364605|EQ364606|EQ364607|EQ364608|EQ364609;UF419801|UF419802|UF419803|UF419804,[M+H]+;[M+H]+;[M+H]+;[M+H]+,CIDRAMP 17.4-26.0;HCD35;HCD15|HCD30|HCD45|HCD60|HCD75|HCD90|HCD120|HCD150|HCD180;HCD55|HCD80|CID35|CID55,182.0087:166.9846:183.0109;182.0092:166.9858:135.0137;182.0089:166.9854|182.0089:166.9854:135.0132|182.0089:166.9856:135.0135|166.9855:182.009:135.0135|166.9855:182.009:135.0135|166.9855:123.0135:109.0105|166.9856:109.0105:123.0135|65.0385:109.0105:96.0027|65.0385:68.9792:96.0027;182.0099:166.9865:135.0143|166.9864:182.0098:135.0142|166.9863:182.0099:136.022|166.9863:136.022:135.014,166.9856;136.022;135.0136;123.0135;109.0105;96.0027;68.9792;65.0385,Athens_Univ;CASMI_2016;Eawag;UFZ,NA,NA,NA,NA,NA,NA
stpQQR496,"Methylchloroisothiazolinone|5-Chloro-2-methyl-4-isothiazolin-3-one|5-Chloro-2-methyl-1,2-thiazol-3-one",CN1SC(Cl)=CC1=O,148.97021,C4H4ClNOS,"InChI=1S/C4H4ClNOS/c1-6-4(7)2-3(5)8-6/h2H,1H3",CAS_RN: 26172-55-4,33344,DHNRXBZYEKSXIM-UHFFFAOYSA-N,30800,DTXSID9034286,Positive,AU214101|AU214102|AU214103|AU214104|AU214105;SM881901;EA028001|EA028002|EA028003|EA028004|EA028005|EA028006|EA028007|EA028008|EA028009|EA028010|EA028011|EA028012|EA028013|EA028014,[M+H]+;[M+H]+;[M+H]+,CID10|CID20|CID30|CID40|CID50;HCD35;CID35|HCD15|HCD30|HCD45|HCD60|HCD75|HCD90|HCD15|HCD30|HCD45|HCD60|HCD75|HCD90|CID35,149.9784:151.9754:150.9809|149.9782:151.9752:134.9542|149.9779:134.9544:151.975|134.9548:136.9507:149.9781|134.955;149.9775:115.0087:118.9353;120.9511:149.977:106.9717|149.9775|149.9777|149.9777:115.0088:118.9355|149.9776:115.0088:118.9355|149.9776:115.0087:134.9541|149.9776:134.9541:115.0088|149.9775:134.9537|149.9777|149.9777:115.0088:118.9354|149.9777:115.0088:118.9354|149.9776:115.0087:134.9541|149.9776:134.9541:115.0087|120.951:132.9508:106.9717,136.9507;134.9541;132.9508;120.95105;118.9354;115.0088;106.9717,Athens_Univ;CASMI_2016;Eawag,NA,NA,NA,NA,NA,NA
stpQQR497,"Benzothiazole|1,3-benzothiazole",S1C=NC2=CC=CC=C12,135.01427,C7H5NS,InChI=1S/C7H5NS/c1-2-4-7-6(3-1)8-5-9-7/h1-5H,CAS_RN: 95-16-9,7222,IOJUPLGTWVMSFF-UHFFFAOYSA-N,6952,DTXSID7024586,Positive,AU405606;SM882102;EA034302|EA034303|EA034304|EA034305|EA034306|EA034307|EA034308|EA034309|EA034310|EA034311|EA034312|EA034313;UF420801|UF420802|UF420803,[M+H]+;[M+H]+;[M+H]+;[M+H]+,CIDRAMP 15.7-23.5;HCD35;HCD15|HCD30|HCD45|HCD60|HCD75|HCD90|HCD15|HCD30|HCD45|HCD60|HCD75|HCD90;HCD55|HCD80|CID35,136.0208:137.0239:138.015;136.0214:109.0106:65.0388;136.0216|136.0217|136.0217|136.0217:109.0108|136.0217:109.0107:77.0387|136.0217:109.0108:77.0387|136.0216|136.0217|136.0217|136.0217:109.0107|136.0217:109.0108:77.0386|136.0217:109.0108:65.0386;136.0219:109.011:105.0338|136.0219:109.011:77.0388|136.0219:105.0337,109.0108;105.03375;77.0387;65.0387,Athens_Univ;CASMI_2016;Eawag;UFZ,NA,NA,NA,NA,NA,NA
stpQQR498,4-Isopropylaniline|4-propan-2-ylaniline,CC(C)C1=CC=C(N)C=C1,135.1048,C9H13N,"InChI=1S/C9H13N/c1-7(2)8-3-5-9(10)6-4-8/h3-7H,10H2,1-2H3",CAS_RN: 99-88-7,7464,LRTFPLFDLJYEKT-UHFFFAOYSA-N,13853758,DTXSID20243932,Positive,SM882201;EA005201|EA005202|EA005203|EA005204|EA005205|EA005206|EA005207|EA005208|EA005209|EA005210|EA005211|EA005212|EA005213|EA005214;UF414501|UF414502|UF414503|UF414504,[M+H]+;[M+H]+;[M+H]+,HCD35;CID35|HCD15|HCD30|HCD45|HCD60|HCD75|HCD90|HCD15|HCD30|HCD45|HCD60|HCD75|HCD90|CID35;HCD55|HCD80|CID35|CID55,136.112:94.0651:91.0542;136.112:94.065|136.112:94.0653|136.1119:94.0651|136.1119:94.065:147.092|136.1121:94.0651:91.0542|136.112:94.065:91.0541|94.065:91.0541:136.1119|136.1119:94.0649|136.112:94.065|136.112:94.065:147.0914|136.112:94.0651:91.0541|136.1119:94.065:91.0541|94.065:91.0541:136.1119|136.112:94.0651:121.0884;136.1126:94.0655:91.0546|94.0654:136.1127:91.0546|136.1126:94.0655:121.0892|94.0654:121.0891:105.0338,121.0891;105.0338;94.0651;91.0541,CASMI_2016;Eawag;UFZ,NA,NA,NA,NA,NA,NA
stpQQR499,"2,6-Xylidine|2,6-Dimethylaniline",CC1=CC=CC(C)=C1N,121.08915,C8H11N,"InChI=1S/C8H11N/c1-6-4-3-5-7(2)8(6)9/h3-5H,9H2,1-2H3",CAS_RN: 87-62-7,6896,UFFBMTHBGFGIHF-UHFFFAOYSA-N,6630,DTXSID8026307,Positive,SM809801;TUE00021|TUE00022|TUE00023;UF414601|UF414602|UF414603|UF414604,[M+H]+;[M+H]+;[M+H]+,HCD35;NA10.0V|NA20.0V|NA40.0V;HCD55|HCD80|CID35|CID55,122.0964:105.0699:107.0729;122.0964:105.07:107.0728|105.0699:79.0542:77.0387|77.0386:51.0227:79.0541;122.0969:105.0703:107.0733|105.0703:122.0969:107.0733|122.0968:107.0733:105.0702|107.0733:105.0702:133.0766,107.0733;105.0702;79.05415;77.03865;51.0227,CASMI_2016;Env_Anal_Chem_U_Tuebingen;UFZ,NA,NA,NA,NA,NA,NA
stpQQR500,Icaridin|Butan-2-yl 2-(2-hydroxyethyl)piperidine-1-carboxylate,CCC(C)OC(=O)N1CCCCC1CCO,229.16779,C12H23NO3,"InChI=1S/C12H23NO3/c1-3-10(2)16-12(15)13-8-5-4-6-11(13)7-9-14/h10-11,14H,3-9H2,1-2H3",CAS_RN: 119515-38-7,125098,QLHULAHOXSSASE-UHFFFAOYSA-N,111359,DTXSID0034227,Positive,SM882501;UF420701|UF420702|UF420703|UF420704,[M+H]+;[M+H]+,HCD35;HCD55|HCD80|CID35|CID55,130.1227:112.1121:156.102;130.123:112.1123:95.0859|130.1232:95.0859:112.1126|130.123:174.1131:156.1025|130.1231:174.1131:156.1025,174.1131;156.1025;130.123;112.1123;95.0859,CASMI_2016;UFZ,NA,NA,NA,NA,NA,NA
stpQQR501,"Genistein|5,7-dihydroxy-3-(4-hydroxyphenyl)chromen-4-one",OC1=CC=C(C=C1)C1=COC2=CC(O)=CC(O)=C2C1=O,270.05282,C15H10O5,"InChI=1S/C15H10O5/c16-9-3-1-8(2-4-9)11-7-20-13-6-10(17)5-12(18)14(13)15(11)19/h1-7,16-18H",CAS_RN: 152-95-4,5280961,TZBJGXHYKVUXJN-UHFFFAOYSA-N,4444448,DTXSID5022308,Positive/Negative,SM882702;EQ326501|EQ326502|EQ326503|EQ326504|EQ326505|EQ326506|EQ326507|EQ326508|EQ326509;UF423801|UF423802|UF423803|UF423804,[M+H]+;[M+H]+;[M+H]+,HCD35;HCD15|HCD30|HCD45|HCD60|HCD75|HCD90|HCD120|HCD150|HCD180;HCD55|HCD80|CID35|CID55,271.0601:153.0182:215.0702;271.06|271.0601:153.0182:243.0654|271.0601:215.0704:153.0183|153.0183:271.0602:215.0704|91.0543:153.0183:141.0699|91.0542:65.0386:153.0183|65.0386:91.0543:115.0543|65.0386:115.0543:68.9971|65.0386:68.9971:63.023;271.06:215.0702:243.0651|91.0541:153.0181:141.0697|271.0597:153.0179:215.0699|153.018:215.07:243.0649,243.0651;215.0702;153.0182;141.0698;115.0543;91.05425;68.9971;65.0386;63.023,CASMI_2016;Eawag;UFZ,SM882751;EQ326551|EQ326552|EQ326553|EQ326554|EQ326555|EQ326556|EQ326557|EQ326558|EQ326559;UF423851|UF423852|UF423853|UF423854,[M-H]-;[M-H]-;[M-H]-,HCD35;HCD15|HCD30|HCD45|HCD60|HCD75|HCD90|HCD120|HCD150|HCD180;HCD55|HCD80|CID35|CID55,269.0456:133.0294:159.0452;269.0455|269.0455:225.0558|269.0455:133.0295:181.0659|269.0457:133.0296:63.0241|133.0296:63.0241:65.0033|63.0241:133.0296:65.0033|65.0033:132.0217:63.0241|65.0033:63.0241:132.0217|65.0033:63.0241:63.9955;269.0454|269.0455|269.0454:181.0659:225.0557|181.0659:225.0557:201.0557,269.0455;225.0557;201.0557;181.0659;159.0452;133.0296;132.0217;65.0033;63.9955;63.0241,CASMI_2016;Eawag;UFZ
stpQQR502,Daidzein|7-hydroxy-3-(4-hydroxyphenyl)chromen-4-one,OC1=CC=C(C=C1)C1=COC2=CC(O)=CC=C2C1=O,254.05791,C15H10O4,"InChI=1S/C15H10O4/c16-10-3-1-9(2-4-10)13-8-19-14-7-11(17)5-6-12(14)15(13)18/h1-8,16-17H",CAS_RN: 486-66-8,5281708,ZQSIJRDFPHDXIC-UHFFFAOYSA-N,4445025,DTXSID9022310,Positive/Negative,SM882802;UF423901|UF423902|UF423903|UF423904,[M+H]+;[M+H]+,HCD35;HCD55|HCD80|CID35|CID55,255.0652:199.0754:137.0233;255.0649:199.0752:227.0701|181.0646:137.0232:91.0541|199.075:255.0647:137.023|199.075:137.023:227.0698,227.06995;199.0751;181.0646;137.0231;91.0541,CASMI_2016;UFZ,SM882851;UF423951|UF423952|UF423953|UF423954,[M-H]-;[M-H]-,HCD35;HCD55|HCD80|CID35|CID55,253.0506:224.0479:209.0607;253.0506|253.0504|253.0504:224.0477:209.0606|224.0479:209.0608:225.0558,253.0505;225.0558;224.0479;209.0607,CASMI_2016;UFZ
stpQQR503,Triethylphosphate|Triethyl phosphate,CCOP(=O)(OCC)OCC,182.0708,C6H15O4P,"InChI=1S/C6H15O4P/c1-4-8-11(7,9-5-2)10-6-3/h4-6H2,1-3H3",CAS_RN: 78-40-0,6535,DQWPFSLDHJDLRL-UHFFFAOYSA-N,6287,DTXSID8026228,Positive,AU226501|AU226502|AU226503;SM883101;EQ315401|EQ315402|EQ315403|EQ315404|EQ315405|EQ315406,[M+H]+;[M+H]+;[M+H]+,CID10|CID20|CID30;HCD35;HCD15|HCD30|HCD45|HCD60|HCD75|HCD90,155.048:127.0164:183.0798|127.0162:155.048:128.0206|127.0165;98.9841:127.0155:155.0467;98.9842:127.0155:155.0468|98.9842:127.0155:155.0468|98.9843:127.0155:155.0469|98.9843:127.0155:116.9947|98.9843:116.9948:127.0156|98.9843:116.9947:80.9736,155.04685;128.0206;127.0155;116.9947;98.9843;80.9736,Athens_Univ;CASMI_2016;Eawag,NA,NA,NA,NA,NA,NA
stpQQR504,Tricresylphosphate|Tri-o-cresyl phosphate|Tris(2-methylphenyl) phosphate,CC1=C(OP(=O)(OC2=C(C)C=CC=C2)OC2=C(C)C=CC=C2)C=CC=C1,368.11775,C21H21O4P,"InChI=1S/C21H21O4P/c1-16-10-4-7-13-19(16)23-26(22,24-20-14-8-5-11-17(20)2)25-21-15-9-6-12-18(21)3/h4-15H,1-3H3",CAS_RN: 78-30-8,6527,YSMRWXYRXBRSND-UHFFFAOYSA-N,21106216,DTXSID6032192,Positive,SM883201,[M+H]+,HCD35,369.1252:166.0777:91.0542,166.0777;91.0542,CASMI_2016,NA,NA,NA,NA,NA,NA
stpQQR505,Bis(2-ethylhexyl)phosphate|Bis(2-ethylhexyl) hydrogen phosphate,CCCCC(CC)COP(O)(=O)OCC(CC)CCCC,322.2273,C16H35O4P,"InChI=1S/C16H35O4P/c1-5-9-11-15(7-3)13-19-21(17,18)20-14-16(8-4)12-10-6-2/h15-16H,5-14H2,1-4H3,(H,17,18)",CAS_RN: 141-65-1,9275,SEGLCEQVOFDUPX-UHFFFAOYSA-N,8918,DTXSID1027134,Positive/Negative,SM883301,[M+H]+,HCD35,98.9842:71.0856:57.0701,98.9842;71.0856;57.0701,CASMI_2016,SM883355,[M-H]-,HCD35,321.2205,321.2205,CASMI_2016
stpQQR506,"DCOIT|4,5-dichloro-2-octyl-1,2-thiazol-3-one",CCCCCCCCN1SC(Cl)=C(Cl)C1=O,281.04079,C11H17Cl2NOS,"InChI=1S/C11H17Cl2NOS/c1-2-3-4-5-6-7-8-14-11(15)9(12)10(13)16-14/h2-8H2,1H3",CAS_RN: 6625-54-3,91688,PORQOHRXAJJKGK-UHFFFAOYSA-N,82791,DTXSID5032315,Positive,SM883402;EA034401|EA034402|EA034403|EA034404|EA034405|EA034406|EA034407|EA034408|EA034409|EA034410|EA034411|EA034412|EA034413|EA034414,[M+H]+;[M+H]+,HCD35;CID35|HCD15|HCD30|HCD45|HCD60|HCD75|HCD90|HCD15|HCD30|HCD45|HCD60|HCD75|HCD90|CID35,169.9228:282.0482:71.0856;169.9232|282.0483:169.9231:71.0854|169.923:282.048:71.0856|169.9231:57.0699:71.0856|169.9231:57.0699:71.0856|169.9229:134.954:57.0698|169.9227:134.9539:126.917|282.0481:169.9229:71.0854|169.923:282.0482:71.0855|169.923:57.0698:71.0855|169.9229:57.0698:71.0855|169.9227:57.0698:134.9539|169.9229:134.954:126.917|169.923,169.923;134.95395;126.917;71.0855;57.0698,CASMI_2016;Eawag,NA,NA,NA,NA,NA,NA