NORMAN_ID,NAME,SMILES,NEUTRAL_EXACT_MASS,FORMULA,StdInChI,CAS_RN,PUBCHEM_CID,InChIKey,CHEMSPIDER_ID,DTXSID,Preferable Ionization,MB_Records Positive Ionization,Adduct Positive Ionization,Ionisation type and collision energy Positive Ionization,Fragments Positive Ionization,Simplified_fragments_Positive,Institute Positive Ionization,MB_Records Negative Ionization,Adduct Negative Ionization,Ionisation type and collision energy Negative Ionization,Fragments Negative Ionization,Simplified_fragments_Negative,Institute Negative Ionization
stpQQR763,Thifensulfuron-methyl| 3-[(4-methoxy-6-methyl-s-triazin-2-yl)carbamoylsulfamoyl]thiophene-2-carboxylic acid methyl ester,COC(=O)C1=C(C=CS1)S(=O)(=O)NC(=O)NC1=NC(C)=NC(OC)=N1,387.0307,C12H13N5O6S2,"InChI=1S/C12H13N5O6S2/c1-6-13-10(16-12(14-6)23-3)15-11(19)17-25(20,21)7-4-5-24-8(7)9(18)22-2/h4-5H,1-3H3,(H2,13,14,15,16,17,19)",CAS_RN: 79277-27-3,73674,AHTPATJNIAFOLR-UHFFFAOYSA-N,66325,DTXSID1024124,Positive/Negative,AU368801|AU368802|AU368803|AU368804|AU368805;EA012401|EA012402|EA012403|EA012404|EA012405|EA012406|EA012407|EA012408|EA012409|EA012410|EA012411|EA012412|EA012413|EA012414,[M+H]+;[M+H]+,CID10|CID20|CID30|CID40|CID50;CID35|HCD15|HCD30|HCD45|HCD60|HCD75|HCD90|HCD15|HCD30|HCD45|HCD60|HCD75|HCD90|CID35,388.0378:167.0553:389.0404|167.0553:141.0761:204.9613|167.0552:204.9611:141.076|167.0556:204.9611:141.0764|167.0552:204.9614:125.9764;167.0564:141.0771:204.9625|167.0564:388.0381:141.0771|167.0564:204.9624:141.0772|167.0565:204.9625:141.0772|167.0564:204.9625:141.0772|125.977:167.0563:204.9624|125.977:97.9821:83.0239|167.0563:388.0379:141.0771|167.0563:204.9624:141.0771|167.0563:204.9624:141.0772|167.0563:204.9623:141.0771|125.977:167.0563:204.9623|125.977:97.9821:83.024|167.0563:141.0772:204.9625,204.9624;167.0563;141.0771;125.977;97.9821;83.02395,Athens_Univ;Eawag,AU368851|AU368852|AU368853;EA012451|EA012452|EA012453|EA012454|EA012455|EA012456|EA012457|EA012458|EA012459|EA012460|EA012461|EA012462|EA012463|EA012464,[M-H]-;[M-H]-,CID10|CID20|CID30;CID35|HCD15|HCD30|HCD45|HCD60|HCD75|HCD90|HCD15|HCD30|HCD45|HCD60|HCD75|HCD90|CID35,139.0619:386.0246|139.0623|139.0613;139.0627:219.9746:187.9484|139.0628:386.024:219.9746|139.0629:245.9542:187.9488|139.0628:187.9485:107.0365|139.0628:107.0365:82.0412|139.0628:107.0365:66.0099|107.0365:139.0627:66.0099|139.0628:386.0236:219.9746|139.0628:187.9485:245.9537|139.0628:187.9482:107.0365|139.0627:107.0365:82.0412|139.0627:107.0363:66.0098|139.0625:107.0362:66.01|139.0627:219.9745:187.9483,386.024;245.95395;219.9746;187.94845;139.0627;107.0365;82.0412;66.0099,Athens_Univ;Eawag
stpQQR764,2-Methyl-4-amino-6-methoxy-s-triazine|(4-methoxy-6-methyl-s-triazin-2-yl)amine,CC1=NC(OC)=NC(N)=N1,140.0698,C5H8N4O,"InChI=1S/C5H8N4O/c1-3-7-4(6)9-5(8-3)10-2/h1-2H3,(H2,6,7,8,9)",CAS_RN: 1668-54-8,15466,NXFQWRWXEYTOTK-UHFFFAOYSA-N,14716,DTXSID4041230,Positive,AU200401|AU200402|AU200403;EA012501|EA012502|EA012503|EA012504|EA012505|EA012506|EA012507|EA012508|EA012509|EA012510|EA012511|EA012512|EA012513|EA012514,[M+H]+;[M+H]+,CID10|CID20|CID30;CID35|HCD15|HCD30|HCD45|HCD60|HCD75|HCD90|HCD15|HCD30|HCD45|HCD60|HCD75|HCD90|CID35,141.0762:121.0383|141.0762:121.0378|141.0774;141.077:57.0446:85.0396|141.0771|141.077:56.0494:57.0445|141.0771:57.0446:100.0504|141.0771:57.0447:100.0505|141.077:57.0446:100.0504|57.0446:141.0771:100.0504|141.077:56.0493:57.0447|141.0769:56.0493:57.0446|141.077:57.0446:100.0504|141.077:57.0447:100.0504|141.0769:57.0446:100.0504|57.0446:141.0769:100.0504|141.077:57.0446:85.0395,121.03805;100.0504;85.03955;57.0446;56.0493,Athens_Univ;Eawag,NA,NA,NA,NA,NA,NA
stpQQR765,2-Aminosulfonyl-benzoic acid methyl ester|Methyl 2-(aminosulfonyl)benzoate| 2-sulfamoylbenzoic acid methyl ester,COC(C1=C(S(=O)(N)=O)C=CC=C1)=O,215.0252,C8H9NO4S,"InChI=1S/C8H9NO4S/c1-13-8(10)6-4-2-3-5-7(6)14(9,11)12/h2-5H,1H3,(H2,9,11,12)",CAS_RN: 57683-71-3,42546,VSOOBQALJVLTBH-UHFFFAOYSA-N,38804,DTXSID9074062,Positive,EA012601|EA012602|EA012603|EA012604|EA012605|EA012606|EA012607|EA012608|EA012609|EA012610|EA012611|EA012612|EA012613|EA012614,[M+H]+,CID35|HCD15|HCD30|HCD45|HCD60|HCD75|HCD90|HCD15|HCD30|HCD45|HCD60|HCD75|HCD90|CID35,199.0061:184.0061:142.9963|199.0059:216.0323:184.0064|199.0058:135.044:184.0061|135.044:199.0058:184.006|135.044:130.0399:77.0386|130.0399:135.044:77.0385|130.0398:77.0385:92.0256|199.0058:216.0323:184.0062|199.0058:135.0439:184.006|135.0439:199.0058:184.0061|135.0439:130.0399:77.0385|130.0399:77.0385:135.0439|130.0399:77.0386:92.0256|199.0058:142.9961:142.0032,199.0058;184.0061;142.9962;142.0032;135.04395;130.0399;92.0256;77.0385,Eawag,NA,NA,NA,NA,NA,NA
stpQQR766,Metsulfuron-methyl| 2-[(4-methoxy-6-methyl-s-triazin-2-yl)carbamoylsulfamoyl]benzoic acid methyl ester,c1(c(cccc1)C(OC)=O)S(NC(Nc1nc(nc(n1)C)OC)=O)(=O)=O,381.0743,C14H15N5O6S,"InChI=1S/C14H15N5O6S/c1-8-15-12(18-14(16-8)25-3)17-13(21)19-26(22,23)10-7-5-4-6-9(10)11(20)24-2/h4-7H,1-3H3,(H2,15,16,17,18,19,21)",CAS_RN: 74223-64-6,52999,RSMUVYRMZCOLBH-UHFFFAOYSA-N,47883,DTXSID6023864,Positive/Negative,EA012801|EA012802|EA012803|EA012804|EA012805|EA012806|EA012807|EA012808|EA012809|EA012810|EA012811|EA012812|EA012813|EA012814,[M+H]+,CID35|HCD15|HCD30|HCD45|HCD60|HCD75|HCD90|HCD15|HCD30|HCD45|HCD60|HCD75|HCD90|CID35,167.0564:350.0551:199.0058|167.0565:382.0817:199.0059|167.0564:199.0059:141.0771|167.0563:199.0058:135.044|167.0565:135.0442:141.0771|167.0563:135.044:77.0386|77.0386:69.0084:92.0257|167.0564:382.0815:199.0058|167.0565:199.0059:141.0771|167.0563:199.0057:135.044|167.0564:135.044:141.077|167.0563:135.044:77.0385|77.0386:69.0083:92.0256|167.0564:350.0551:199.0057,350.0551;199.0058;167.0564;141.0771;135.044;92.02565;77.0386;69.00835,Eawag,EA012851|EA012852|EA012853|EA012854|EA012855|EA012856|EA012857|EA012858|EA012859|EA012860|EA012861|EA012862|EA012863|EA012864,[M-H]-,CID35|HCD15|HCD30|HCD45|HCD60|HCD75|HCD90|HCD15|HCD30|HCD45|HCD60|HCD75|HCD90|CID35,139.0627:181.992:214.0182|139.0629:380.0677:181.9921|139.0629:181.9917|139.0628:181.9921:107.0366|139.0628:107.0365:82.0413|139.0627:107.0365:66.0098|107.0365:139.0627:66.0099|139.0628:380.0672:181.9917|139.0628:181.9922:82.0414|139.0628:181.9917:107.0364|139.0628:107.0365:82.0413|139.0626:107.0364:66.0099|107.0364:139.0628:66.0099|139.0627:181.9919:214.0181,380.06745;214.01815;181.99195;139.0628;107.0365;82.0413;66.0099,Eawag
stpQQR767,"Nicosulfuron|2-[(4,6-dimethoxypyrimidin-2-yl)carbamoylsulfamoyl]-N,N-dimethyl-nicotinamide",O=C(Nc1nc(cc(OC)n1)OC)NS(=O)(=O)c2ncccc2C(=O)N(C)C,410.1009,C15H18N6O6S,"InChI=1S/C15H18N6O6S/c1-21(2)13(22)9-6-5-7-16-12(9)28(24,25)20-15(23)19-14-17-10(26-3)8-11(18-14)27-4/h5-8H,1-4H3,(H2,17,18,19,20,23)",CAS_RN: 111991-09-4,73281,RTCOGUMHFFWOJV-UHFFFAOYSA-N,66024,DTXSID6034764,Positive/Negative,EA012901|EA012902|EA012903|EA012904|EA012905|EA012906|EA012907|EA012908|EA012909|EA012910|EA012911|EA012912|EA012913|EA012914,[M+H]+,CID35|HCD15|HCD30|HCD45|HCD60|HCD75|HCD90|HCD15|HCD30|HCD45|HCD60|HCD75|HCD90|CID35,366.0502:213.0327:182.0559|182.056:411.1081:213.0327|182.0559:213.0326:106.0286|182.0558:106.0286:156.0769|182.056:106.0287:83.024|106.0287:83.0239:78.0338|78.0338:83.0239:106.0286|182.0558:411.1077:213.0326|182.0557:213.0326:106.0286|182.0559:106.0286:213.0329|182.0559:106.0286:157.0607|106.0288:83.024:78.0339|78.0338:83.0239:106.0286|366.0499:213.0326:182.0558,366.05005;213.0326;182.0559;157.0607;156.0769;106.0286;83.0239;78.0338,Eawag,EA012951|EA012952|EA012953|EA012954|EA012955|EA012956|EA012957|EA012958|EA012959|EA012960|EA012961|EA012962|EA012963|EA012964,[M-H]-,CID35|HCD15|HCD30|HCD45|HCD60|HCD75|HCD90|HCD15|HCD30|HCD45|HCD60|HCD75|HCD90|CID35,228.045:254.0242:154.0625|154.0625:409.0943:228.0451|154.0626:228.0452:254.0251|154.0626:122.0362:65.0146|154.0626:122.0364:139.039|65.9986:122.0363:154.0627|65.9987:122.0362:107.0127|154.0625:409.094:228.045|154.0626:228.0453:254.0245|154.0625:122.0362:65.0146|154.0624:122.0361:139.039|65.9986:122.0363:154.0623|65.9986:122.0362:65.0146|228.0448:254.024:154.0623,409.09415;254.02435;228.04505;154.0625;139.039;122.0362;107.0127;65.9986;65.0146,Eawag
stpQQR768,"Rimsulfuron|1-(4,6-dimethoxy-2-pyrimidinyl)-3-[(3-ethylsulfonyl-2-pyridinyl)sulfonyl]urea",CCS(=O)(=O)c1cccnc1S(=O)(=O)NC(=O)Nc1nc(OC)cc(OC)n1,431.0569,C14H17N5O7S2,"InChI=1S/C14H17N5O7S2/c1-4-27(21,22)9-6-5-7-15-12(9)28(23,24)19-14(20)18-13-16-10(25-2)8-11(17-13)26-3/h5-8H,4H2,1-3H3,(H2,16,17,18,19,20)",CAS_RN: 122931-48-0,91779,MEFOUWRMVYJCQC-UHFFFAOYSA-N,82876,DTXSID1032642,Positive/Negative,EA013001|EA013002|EA013003|EA013004|EA013005|EA013006|EA013007|EA013008|EA013009|EA013010|EA013011|EA013012|EA013013|EA013014,[M+H]+,CID35|HCD15|HCD30|HCD45|HCD60|HCD75|HCD90|HCD15|HCD30|HCD45|HCD60|HCD75|HCD90|CID35,325.0965:182.0559:368.1009|432.0642:325.0965:182.0559|182.0559:325.0963:106.0651|182.0559:106.0651:156.0766|182.0559:106.065:83.024|83.024:139.0501:182.0558|83.024:139.0501:106.065|432.0637:325.0961:182.0558|182.0558:325.096:106.065|182.0558:106.065:156.0767|182.0558:106.0651:83.0239|83.024:139.0501:182.0559|83.024:139.0501:157.0606|325.0963:182.0559:251.0154,368.1009;325.0963;251.0154;182.0559;157.0606;156.07665;139.0501;106.065;83.024,Eawag,EA013051|EA013052|EA013053|EA013054|EA013055|EA013056|EA013057|EA013058|EA013059|EA013060|EA013061|EA013062|EA013063|EA013064,[M-H]-,CID35|HCD15|HCD30|HCD45|HCD60|HCD75|HCD90|HCD15|HCD30|HCD45|HCD60|HCD75|HCD90|CID35,179.0577:186.0232:274.9806|179.0578:186.0235:430.0511|154.0626:186.0234:179.0578|154.0625:157.008:186.0236|154.0625:93.0458:157.0081|122.0362:93.0459:65.9986|65.9985:93.046:122.0364|179.0576:186.0231:430.0494|154.0624:186.0231:179.0577|154.0624:157.0081:186.0233|154.0624:157.0077:93.0459|93.0461:154.0626:65.9985|93.0459:94.0298|179.0576:186.0231:274.9802,430.05025;274.9804;186.02325;179.0577;157.00805;154.0625;122.0363;94.0298;93.0459;65.9985,Eawag
stpQQR769,"Prometon|6-methoxy-2-N,4-N-di(propan-2-yl)-1,3,5-triazine-2,4-diamine",c1(nc(NC(C)C)nc(n1)OC)NC(C)C,225.1584,C10H19N5O,"InChI=1S/C10H19N5O/c1-6(2)11-8-13-9(12-7(3)4)15-10(14-8)16-5/h6-7H,1-5H3,(H2,11,12,13,14,15)",CAS_RN: 1610-18-0,4928,ISEUFVQQFVOBCY-UHFFFAOYSA-N,4759,DTXSID6022341,Positive,AU361901|AU361902|AU361903|AU361904|AU361905;EA013201|EA013202|EA013203|EA013204|EA013205|EA013206|EA013207|EA013208|EA013209|EA013210|EA013211|EA013212|EA013213|EA013214,[M+H]+;[M+H]+,CID10|CID20|CID30|CID40|CID50;CID35|HCD15|HCD30|HCD45|HCD60|HCD75|HCD90|HCD15|HCD30|HCD45|HCD60|HCD75|HCD90|CID35,226.166:227.1687:184.1179|226.166:184.1182:142.0714|142.0714:184.1182:226.1658|142.0717:184.1185:143.0737|142.0714:143.0745:125.0454;184.1195:142.0724:226.1663|226.1664|226.1666:184.1189:142.0727|226.1664:184.1195:142.0724|142.0724:184.1193:226.166|142.0725:100.0506:86.0349|142.0723:86.0349:100.0506|226.1662:184.1195:211.1418|226.1663:184.1193:142.0725|226.1662:184.1193:142.0724|142.0723:184.1193:226.1663|142.0724:86.035:100.0506|142.0724:86.0349:100.0506|184.1193:142.0724:226.1661,211.1418;184.1193;143.0741;142.0724;125.0454;100.0506;86.0349,Athens_Univ;Eawag,NA,NA,NA,NA,NA,NA
stpQQR770,"Prometryn|6-(methylthio)-N2,N4-di(propan-2-yl)-1,3,5-triazine-2,4-diamine",c1(nc(NC(C)C)nc(n1)SC)NC(C)C,241.1356,C10H19N5S,"InChI=1S/C10H19N5S/c1-6(2)11-8-13-9(12-7(3)4)15-10(14-8)16-5/h6-7H,1-5H3,(H2,11,12,13,14,15)",CAS_RN: 7287-19-6,4929,AAEVYOVXGOFMJO-UHFFFAOYSA-N,4760,DTXSID4024272,Positive,EA013301|EA013302|EA013303|EA013304|EA013305|EA013306|EA013307|EA013308|EA013309|EA013310|EA013311|EA013312|EA013313|EA013314;UF403701|UF403702|UF403703|UF403704,[M+H]+;[M+H]+,CID35|HCD15|HCD30|HCD45|HCD60|HCD75|HCD90|HCD15|HCD30|HCD45|HCD60|HCD75|HCD90|CID35;HCD55|HCD80|CID35|CID55,200.0967:158.0497:242.1434|242.1437:158.049|242.1438:200.0966:158.0493|242.1434:200.0967:158.0498|158.0497:200.0965:68.0243|158.0497:68.0244:116.0278|158.0495:68.0243:116.0277|242.1436:200.0967:227.1202|242.1436:200.0965:158.0498|242.1435:200.0966:158.0496|158.0496:200.0965:68.0243|158.0497:68.0244:116.0278|158.0496:68.0244:116.0278|200.0967:158.0496:242.1435;158.0495:200.0964:242.1434|158.0494:116.0275:85.0508|200.0962:158.0495:242.1433|200.0962:158.0494:152.1183,227.1202;200.09655;158.0496;152.1183;116.0278;85.0508;68.02435,Eawag;UFZ,NA,NA,NA,NA,NA,NA
stpQQR771,"Fluroxypyr|2-(4-amino-3,5-dichloro-6-fluoropyridin-2-yl)oxyacetic acid",c1(c(c(c(Cl)c(n1)F)N)Cl)OCC(O)=O,253.9667,C7H5Cl2FN2O3,"InChI=1S/C7H5Cl2FN2O3/c8-3-5(11)4(9)7(12-6(3)10)15-1-2(13)14/h1H2,(H2,11,12)(H,13,14)",CAS_RN: 69377-81-7,50465,MEFQWPUMEMWTJP-UHFFFAOYSA-N,45757,DTXSID2034627,Positive/Negative,EA013401|EA013402|EA013403|EA013404|EA013405|EA013406|EA013407|EA013408|EA013409|EA013410|EA013411|EA013412|EA013413|EA013414,[M+H]+,CID35|HCD15|HCD30|HCD45|HCD60|HCD75|HCD90|HCD15|HCD30|HCD45|HCD60|HCD75|HCD90|CID35,236.9626:208.9677:196.9678|254.9732:236.9626:208.968|208.9678:196.9677:236.9623|180.9729:208.9678:196.9678|180.973:196.9679:208.968|180.9729:196.9677:163.0068|146.0042:151.9465:180.9729|254.9731:236.9624:208.9677|208.9678:196.9679:236.9626|180.9729:208.9678:196.9678|180.9729:196.9678:208.9677|180.9729:196.9679:163.0068|146.004:151.9463:180.9728|236.9625:208.9677:196.9676,236.96255;208.9678;196.9678;180.9729;163.0068;151.9464;146.0041,Eawag,EA013451|EA013452|EA013453|EA013454|EA013455|EA013456|EA013457|EA013458|EA013459|EA013460|EA013461|EA013462|EA013463|EA013464,[M-H]-,CID35|HCD15|HCD30|HCD45|HCD60|HCD75|HCD90|HCD15|HCD30|HCD45|HCD60|HCD75|HCD90|CID35,194.9535:232.9527:216.9821|194.9533:252.9588:232.9523|194.9534:216.9814:252.9586|194.9533:174.9469:158.9761|194.9532:131.9412:174.9469|194.9526:131.9412:174.9469|131.9412:95.005|194.9532:252.9585:232.9524|194.9533:216.9816:232.9524|194.9532:174.9467:158.9766|194.9532:131.9411:174.947|194.9534:131.9411:157.9687|95.0052:157.9684|232.9527:194.9535:216.982,252.9586;232.9524;216.9818;194.9533;174.9469;158.97635;157.96855;131.9412;95.0051,Eawag
stpQQR772,"Metalaxyl|2-(N-(2-methoxy-1-oxoethyl)-2,6-dimethylanilino)propanoic acid methyl ester",CC1=C(C(=CC=C1)C)N(C(C)C(=O)OC)C(=O)COC,279.1465,C15H21NO4,"InChI=1S/C15H21NO4/c1-10-7-6-8-11(2)14(10)16(13(17)9-19-4)12(3)15(18)20-5/h6-8,12H,9H2,1-5H3",CAS_RN: 57837-19-1,42856,ZQEIXNIJLIKNTD-UHFFFAOYSA-N,38839,DTXSID6024175,Positive,SM839102;EA013501|EA013502|EA013503|EA013504|EA013505|EA013506|EA013507|EA013508|EA013509|EA013510|EA013511|EA013512|EA013513|EA013514,[M+H]+;[M+H]+,HCD35;CID35|HCD15|HCD30|HCD45|HCD60|HCD75|HCD90|HCD15|HCD30|HCD45|HCD60|HCD75|HCD90|CID35,220.1333:192.1383:160.1121;248.1281:220.1332:192.1383|280.1542:248.1279:220.1332|192.1384:220.1333:160.112|192.1383:160.1121:220.1331|160.112:192.1382:148.112|160.112:134.0963:132.0807|132.0807:134.0964:160.112|280.1544:248.1282:220.1333|192.1384:220.1333:160.1121|192.1383:160.1121:220.133|160.1121:192.1381:148.112|160.1121:134.0964:145.0886|132.0807:134.0963:160.112|248.1282:220.1333:192.1382,248.12815;220.1333;192.1383;160.1121;148.112;145.0886;134.09635;132.0807,CASMI_2016;Eawag,NA,NA,NA,NA,NA,NA
stpQQR773,Carbetamide|N-phenylcarbamic acid [1-(ethylamino)-1-oxopropan-2-yl] ester,CCNC(=O)C(C)OC(=O)NC1=CC=CC=C1,236.1155,C12H16N2O3,"InChI=1S/C12H16N2O3/c1-3-13-11(15)9(2)17-12(16)14-10-7-5-4-6-8-10/h4-9H,3H2,1-2H3,(H,13,15)(H,14,16)",CAS_RN: 16118-49-3,27689,AMRQXHFXNZFDCH-UHFFFAOYSA-N,25761,DTXSID7041756,Positive/Negative,EA013601|EA013602|EA013603|EA013604|EA013605|EA013606|EA013607|EA013608|EA013609|EA013610|EA013611|EA013612|EA013613|EA013614,[M+H]+,CID35|HCD15|HCD30|HCD45|HCD60|HCD75|HCD90|HCD15|HCD30|HCD45|HCD60|HCD75|HCD90|CID35,192.0658:164.0708:120.0444|120.0445:192.0657:118.0864|118.0863:120.0444:72.0808|118.0863:120.0444:72.0808|72.0808:120.0445:118.0863|72.0808:120.0444:92.0495|72.0808:92.0496:77.0386|120.0444:192.0656:118.0863|118.0863:120.0444:72.0808|118.0863:120.0444:72.0808|72.0808:120.0444:118.0862|72.0808:120.0444:92.0495|72.0808:92.0495:77.0386|192.0657:164.0707:118.0863,192.0657;164.07075;120.0444;118.0863;92.0495;77.0386;72.0808,Eawag,EA013651|EA013652|EA013653|EA013654|EA013655|EA013658|EA013659|EA013660|EA013661|EA013664,[M-H]-,CID35|HCD15|HCD30|HCD45|HCD60|HCD15|HCD30|HCD45|HCD60|CID35,116.0718:142.051|116.0717:142.0505|116.0718|116.0718:72.0456|116.0718|116.0718|116.0716:72.0456|116.0717:72.0454|116.0717|116.0718:142.051,142.051;116.0718;72.0456,Eawag
stpQQR774,2-Aminobenzimidazole|1H-Benzimidazol-2-amine,NC1=NC2=C(C=CC=C2)N1,133.064,C7H7N3,"InChI=1S/C7H7N3/c8-7-9-5-3-1-2-4-6(5)10-7/h1-4H,(H3,8,9,10)",CAS_RN: 934-32-7,13624,JWYUFVNJZUSCSM-UHFFFAOYSA-N,13035,DTXSID1024465,Positive/Negative,AU200301|AU200302|AU200303|AU200304|AU200305;EA013801|EA013802|EA013803|EA013804|EA013805|EA013806|EA013807|EA013808|EA013809|EA013810|EA013811|EA013812|EA013813|EA013814;TUE00011|TUE00012|TUE00013;UF400801|UF400802,[M+H]+;[M+H]+;[M+H]+;[M+H]+,CID10|CID20|CID30|CID40|CID50;CID35|HCD15|HCD30|HCD45|HCD60|HCD75|HCD90|HCD15|HCD30|HCD45|HCD60|HCD75|HCD90|CID35;NA10.0V|NA20.0V|NA40.0V;HCD55|HCD80,134.0716:135.0745|134.0716:135.0746:133.0633|134.0704:133.0627:135.0734|134.0702:133.0625:117.0439|133.063:134.071;134.0711|134.0712|134.0712|134.0713|134.0712:92.0493:93.0575|134.0713:92.0495:107.0603|134.0712:92.0494:107.0603|134.0712:133.0637|134.0712|134.0712:92.0495|134.0712:92.0494:93.0573|134.0712:92.0494:107.0603|134.0712:92.0494:107.0603|134.0711;134.0713:92.0495|134.0713:92.0495:65.0387|65.0389:92.0494:80.0494;134.0711:92.0494|134.0711:92.0494,133.063;117.0439;107.0603;93.0574;92.0494;80.0494;65.0388,Athens_Univ;Eawag;Env_Anal_Chem_U_Tuebingen;UFZ,EA013851|EA013852|EA013853|EA013854|EA013855|EA013856|EA013857|EA013858|EA013859|EA013860|EA013861|EA013862|EA013863|EA013864;TUE00015|TUE00016|TUE00017,[M-H]-;[M-H]-,CID35|HCD15|HCD30|HCD45|HCD60|HCD75|HCD90|HCD15|HCD30|HCD45|HCD60|HCD75|HCD90|CID35;NA10.0V|NA20.0V|NA40.0V,132.0568|132.0567|132.0567|132.0567|132.0567|132.0567|132.0567|132.0568|132.0568|132.0567|132.0567|132.0566|132.0565|132.0568;132.0567|132.0567:131.0487|41.014:40.0061:132.0567,132.0567;131.0487;41.014;40.0061,Eawag;Env_Anal_Chem_U_Tuebingen
stpQQR775,"Clomazone|2-(2-chlorobenzyl)-4,4-dimethyl-isoxazolidin-3-one",N1(C(C(C)(C)CO1)=O)Cc1c(cccc1)Cl,239.0708,C12H14ClNO2,"InChI=1S/C12H14ClNO2/c1-12(2)8-16-14(11(12)15)7-9-5-3-4-6-10(9)13/h3-6H,7-8H2,1-2H3",CAS_RN: 81777-89-1,54778,KIEDNEWSYUYDSN-UHFFFAOYSA-N,49469,DTXSID1032355,Positive,SM843201;EA013901|EA013902|EA013903|EA013904|EA013905|EA013906|EA013907|EA013908|EA013909|EA013910|EA013911|EA013912|EA013913|EA013914;UF405601|UF405602|UF405603|UF405604,[M+H]+;[M+H]+;[M+H]+,HCD35;CID35|HCD15|HCD30|HCD45|HCD60|HCD75|HCD90|HCD15|HCD30|HCD45|HCD60|HCD75|HCD90|CID35;HCD55|HCD80|CID35|CID55,125.0153:240.0786:128.0706;125.0153:128.0706:100.0757|240.0787:125.0149:128.0704|125.0152:240.0787:128.0707|125.0153:240.0797:89.0386|125.0153:89.0386|125.0153:89.0385:98.9996|125.0153:89.0386:98.9996|240.0787:125.0151:128.0706|125.0153:240.0787:128.0705|125.0153:240.0786:73.0648|125.0153:89.0387:98.9997|125.0153:89.0386:98.9996|125.0153:89.0386:98.9996|125.0153:128.0706:100.0757;125.0151:240.0783:89.0384|125.0151:89.0385:98.9995|125.0151:128.0704:240.0785|125.0151:128.0704:100.0756,128.0706;125.0153;100.0757;98.9996;89.0386;73.0648,CASMI_2016;Eawag;UFZ,NA,NA,NA,NA,NA,NA