NORMAN_ID,NAME,SMILES,NEUTRAL_EXACT_MASS,FORMULA,StdInChI,CAS_RN,PUBCHEM_CID,InChIKey,CHEMSPIDER_ID,DTXSID,Preferable Ionization,MB_Records Positive Ionization,Adduct Positive Ionization,Ionisation type and collision energy Positive Ionization,Fragments Positive Ionization,Simplified_fragments_Positive,Institute Positive Ionization,MB_Records Negative Ionization,Adduct Negative Ionization,Ionisation type and collision energy Negative Ionization,Fragments Negative Ionization,Simplified_fragments_Negative,Institute Negative Ionization
stpQQR882,"Clotrimazole|1-(o-Chloro-alpha,alpha-diphenylbenzyl)imidazole|1-[(2-chlorophenyl)-diphenyl-methyl]imidazole",ClC1=C(C=CC=C1)C(N2C=CN=C2)(C3=CC=CC=C3)C4=CC=CC=C4,344.108,C22H17ClN2,"InChI=1S/C22H17ClN2/c23-21-14-8-7-13-20(21)22(25-16-15-24-17-25,18-9-3-1-4-10-18)19-11-5-2-6-12-19/h1-17H",CAS_RN: 23593-75-1,2812,VNFPBHJOKIVQEB-UHFFFAOYSA-N,2710,DTXSID7029871,Positive,SM854903;EA032901|EA032910|EA032913|EA032914,[M+H]+;[M+H]+,HCD35;CID35|HCD45|HCD90|CID35,277.0782:165.07:345.1154;278.0835|165.0698:278.0835|165.0699:277.0781|277.0776,278.0835;277.0781;165.0699,CASMI_2016;Eawag,NA,NA,NA,NA,NA,NA
stpQQR883,"N'-(2,4-Dimethylphenyl)-N-methylformamidine|Methanimidamide, N-(2,4-dimethylphenyl)-N'-methyl-|N-(2,4-dimethylphenyl)-N'-methyl-formamidine",C(=NC)Nc1c(cc(cc1)C)C,162.1157,C10H14N2,"InChI=1S/C10H14N2/c1-8-4-5-10(9(2)6-8)12-7-11-3/h4-7H,1-3H3,(H,11,12)",CAS_RN: 33089-74-6,36326,JIIOLEGNERQDIP-UHFFFAOYSA-N,33406,DTXSID1037696,Positive,EA033101|EA033102|EA033103|EA033104|EA033105|EA033106|EA033107|EA033108|EA033109|EA033110|EA033111|EA033112|EA033113|EA033114,[M+H]+,CID35|HCD15|HCD30|HCD45|HCD60|HCD75|HCD90|HCD15|HCD30|HCD45|HCD60|HCD75|HCD90|CID35,122.0965:132.0808:120.0807|163.123:122.096|163.123:122.0965:132.0809|163.1229:122.0964:132.0808|163.1229:122.0964:132.0807|122.0964:107.0729:132.0808|107.0729:105.0699:117.0573|163.1229|163.123:122.0965:132.0808|163.123:122.0964:132.0807|163.1229:122.0964:132.0807|122.0964:107.073:132.0808|107.073:105.0699:117.0573|122.0964:132.0808:120.0808,132.0808;122.0964;120.08075;117.0573;107.07295;105.0699,Eawag,NA,NA,NA,NA,NA,NA
stpQQR884,Fluoxetine|N-methyl-3-phenyl-3-[4-(trifluoromethyl)phenoxy]-1-propanamine,CNCCC(C1=CC=CC=C1)OC2=CC=C(C=C2)C(F)(F)F,309.134,C17H18F3NO,"InChI=1S/C17H18F3NO/c1-21-12-11-16(13-5-3-2-4-6-13)22-15-9-7-14(8-10-15)17(18,19)20/h2-10,16,21H,11-12H2,1H3",CAS_RN: 54910-89-3,3386,RTHCYVBBDHJXIQ-UHFFFAOYSA-N,3269,DTXSID7023067,Positive,AU150901|AU150902|AU150903|AU150904|AU150905;SM832103;EA033401|EA033402|EA033407|EA033408|EA033412|EA033413|EA033414;ET070001|ET070002|ET070003|ET070004|ET070005,[M+H]+;[M+H]+;[M+H]+;[M+H]+,"CID10|CID20|CID30|CID40|CID50;HCD35;CID35|HCD15|HCD90|HCD15|HCD75|HCD90|CID35;HCD15, 30, 45, 60, 70 or 90|HCD15, 30, 45, 60, 70 or 90|HCD15, 30, 45, 60, 70 or 90|HCD15, 30, 45, 60, 70 or 90|HCD15, 30, 45, 60, 70 or 90",310.1421:311.1446:148.1114|265.1577:223.1105:247.1476|219.1161:223.1112:265.1574|204.0926:219.1156:218.1075|204.0923:194.071:167.0847;310.1417:148.1123;148.112|310.1416:148.112|91.0543|310.1412:148.112|91.0542:117.0699|91.0542:117.0699|148.112;117.0696:91.0543|117.0697:91.054:115.0542|117.0697:91.0542:115.0542|148.112|148.112:117.0694,265.15755;247.1476;223.11085;219.11585;218.1075;204.09245;194.071;167.0847;148.112;117.0697;115.0542;91.0542,Athens_Univ;CASMI_2016;Eawag;Eawag_Additional_Specs,NA,NA,NA,NA,NA,NA
stpQQR885,Fenofibrate|isopropyl 2-[4-(4-chlorobenzoyl)phenoxy]-2-methylpropanoate| 2-[4-(4-chlorobenzoyl)phenoxy]-2-methyl-propionic acid isopropyl ester,CC(C)OC(=O)C(C)(C)OC1=CC=C(C=C1)C(=O)C2=CC=C(C=C2)Cl,360.1128,C20H21Cl1O4,"InChI=1S/C20H21ClO4/c1-13(2)24-19(23)20(3,4)25-17-11-7-15(8-12-17)18(22)14-5-9-16(21)10-6-14/h5-13H,1-4H3",CAS_RN: 49562-28-9,3339,YMTINGFKWWXKFG-UHFFFAOYSA-N,3222,DTXSID2029874,Positive,SM860602;EA033601|EA033602|EA033603|EA033604|EA033605|EA033606|EA033607|EA033608|EA033609|EA033610|EA033611|EA033612|EA033613|EA033614,[M+H]+;[M+H]+,HCD35;CID35|HCD15|HCD30|HCD45|HCD60|HCD75|HCD90|HCD15|HCD30|HCD45|HCD60|HCD75|HCD90|CID35,138.9945:233.0364:121.0284;233.0365:273.0675:319.0729|361.1201:233.0363:138.9946|233.0364:138.9945:121.0283|138.9947:233.0365:121.0285|138.9946:121.0284:233.0367|138.9946:121.0284:139.0061|139.0056:138.9945:121.0284|361.1202:233.0363:319.0738|233.0365:138.9945:121.0284|138.9945:233.0362:121.0284|138.9945:121.0284:233.0363|138.9945:121.0284:139.0057|139.0057:138.9945:121.0284|233.0365:319.0729:273.0675,319.0729;273.0675;233.0364;139.0057;138.9945;121.0284,CASMI_2016;Eawag,NA,NA,NA,NA,NA,NA
stpQQR886,Fenofibric acid| 2-[4-(4-chlorobenzoyl)phenoxy]-2-methyl-propionic acid,c1cc(C(=O)c2ccc(cc2)OC(C(=O)O)(C)C)ccc1Cl,318.0659,C17H15ClO4,"InChI=1S/C17H15ClO4/c1-17(2,16(20)21)22-14-9-5-12(6-10-14)15(19)11-3-7-13(18)8-4-11/h3-10H,1-2H3,(H,20,21)",CAS_RN: 42017-89-0,64929,MQOBSOSZFYZQOK-UHFFFAOYSA-N,58457,DTXSID8041030,Positive/Negative,AU205601|AU205602|AU205603|AU205604|AU205605;EA033701|EA033702|EA033703|EA033704|EA033705|EA033706|EA033707|EA033708|EA033709|EA033710|EA033711|EA033712|EA033713|EA033714,[M+H]+;[M+H]+,CID10|CID20|CID30|CID40|CID50;CID35|HCD15|HCD30|HCD45|HCD60|HCD75|HCD90|HCD15|HCD30|HCD45|HCD60|HCD75|HCD90|CID35,319.0733:233.0362:321.0715|233.0357:235.0332:234.0387|233.0357:138.9932:121.0274|138.9932:140.9906:121.0274|138.9932:121.0278:140.9906;233.0365:138.9942:121.0282|319.073:233.0362:138.9945|233.0366:138.9944:319.0732|233.0363:138.9945:121.0283|138.9945:121.0284:233.036|138.9946:121.0284:139.006|138.9945:139.0056:121.0284|319.0731:233.0362:121.0279|233.0365:138.9943:319.0729|233.0363:138.9945:121.0284|138.9945:121.0284:233.0363|138.9945:121.0284:139.0056|138.9945:139.0057:121.0284|233.0364:121.0284,235.0332;234.0387;233.0363;140.9906;139.00565;138.9945;121.0284,Athens_Univ;Eawag,EA033751|EA033752|EA033753|EA033754|EA033755|EA033756|EA033758|EA033759|EA033760|EA033761|EA033762|EA033763,[M-H]-,CID35|HCD15|HCD30|HCD45|HCD60|HCD75|HCD15|HCD30|HCD45|HCD60|HCD75|HCD90,231.022|231.0215|231.0219|231.0216|231.0213|231.0225|231.0217|231.0215|231.0215|231.0214|231.021|231.022,231.02155,Eawag
stpQQR887,"Antipyrine|Phenazone|1,5-dimethyl-2-phenyl-3-pyrazolone",CN1N(C(=O)C=C1C)C2=CC=CC=C2,188.095,C11H12N2O,"InChI=1S/C11H12N2O/c1-9-8-11(14)13(12(9)2)10-6-4-3-5-7-10/h3-8H,1-2H3",CAS_RN: 60-80-0,2206,VEQOALNAAJBPNY-UHFFFAOYSA-N,2121,DTXSID6021117,Positive,SM854601;EA033801|EA033802|EA033803|EA033804|EA033805|EA033806|EA033807|EA033808|EA033809|EA033810|EA033811|EA033812|EA033813|EA033814;UF406801|UF406802|UF406803|UF406804|UF406835|UF406836,[M+H]+;[M+H]+;[M+H]+,HCD35;CID35|HCD15|HCD30|HCD45|HCD60|HCD75|HCD90|HCD15|HCD30|HCD45|HCD60|HCD75|HCD90|CID35;HCD55|HCD80|CID35|CID55|CID35|CID55,189.1022:147.0916:56.0496;189.1022:131.0729:161.1073|189.1025|189.1024:161.1073|189.1027:161.1074:147.0918|189.1025:147.0916:161.1073|189.1029:104.0496:147.0918|106.0651:56.0494:104.0495|189.1023|189.1022:161.1075:174.0784|189.1023:161.1073:147.0917|189.1023:147.0917:161.1073|189.1022:104.0495:147.0917|106.0652:104.0495:56.0495|189.1022:131.0729:161.1073;189.1025:147.092:161.1076|104.0496:189.1024:106.0652|189.1024:131.0731:161.1075|131.073:161.1074:144.0809|142.0609:155.0473:183.0871|142.0611:155.0472:183.0876,183.08735;174.0784;161.1073;155.04725;147.0917;144.0809;142.061;131.07295;106.0652;104.0495;56.0495,CASMI_2016;Eawag;UFZ,NA,NA,NA,NA,NA,NA
stpQQR888,"N,N-Dimethyl-N'-p-tolylsulphamide|1-(dimethylsulfamoylamino)-4-methyl-benzene",O=S(=O)(Nc1ccc(C)cc1)N(C)C,214.0776,C9H14N2O2S,"InChI=1S/C9H14N2O2S/c1-8-4-6-9(7-5-8)10-14(12,13)11(2)3/h4-7,10H,1-3H3",CAS_RN: 66840-71-9,738302,UDCDOJQOXWCCSD-UHFFFAOYSA-N,645289,DTXSID00891450,Positive/Negative,EA034001|EA034002|EA034003|EA034004|EA034005|EA034006|EA034007|EA034008|EA034009|EA034010|EA034011|EA034012|EA034013|EA034014,[M+H]+,CID35|HCD15|HCD30|HCD45|HCD60|HCD75|HCD90|HCD15|HCD30|HCD45|HCD60|HCD75|HCD90|CID35,151.1231:106.0652:107.073|106.0652:215.0848:151.123|106.0652:151.1229:79.0542|106.0652:79.0542:107.0729|106.0652:79.0543:107.0729|106.0652:79.0542:77.0386|79.0543:106.0652:77.0387|106.0652:215.0849:151.123|106.0652:151.1231:79.0543|106.0652:79.0543:107.0729|106.0652:79.0543:107.0729|106.0651:79.0542:77.0386|79.0542:106.0651:77.0386|151.1231:106.0652:107.073,151.12305;107.0729;106.0652;79.05425;77.0386,Eawag,EA034051|EA034052|EA034053|EA034058|EA034059|EA034064,[M-H]-,CID35|HCD15|HCD30|HCD15|HCD30|CID35,169.0207|213.0709|213.0708|213.0706|213.0706|169.0206,213.0707;169.02065,Eawag
stpQQR889,"N,N-Dimethylsulfamide|[methyl(sulfamoyl)amino]methane|MAS",S(=O)(=O)(N)N(C)C,124.0306,C2H8N2O2S,"InChI=1S/C2H8N2O2S/c1-4(2)7(3,5)6/h1-2H3,(H2,3,5,6)",CAS_RN: 3984-14-3,134472,QMHAHUAQAJVBIW-UHFFFAOYSA-N,118532,DTXSID3074735,Positive,EA034101|EA034102|EA034103|EA034104|EA034105|EA034106|EA034107|EA034108|EA034109|EA034110|EA034111|EA034112|EA034113|EA034114,[M+H]+,CID35|HCD15|HCD30|HCD45|HCD60|HCD75|HCD90|HCD15|HCD30|HCD45|HCD60|HCD75|HCD90|CID35,108.0114:125.0379|125.0379:108.0113|125.038:108.0114|108.0114:125.0379:79.98|108.0114:125.0379:79.98|108.0113:79.98:125.0376|108.0113:79.98|125.0379:108.0113|125.0379:108.0114|108.0113:125.0378:79.9801|108.0113:125.0378:79.98|108.0113:79.9801:125.0374|108.0114:79.9801:125.0383|108.0114:125.0379,108.01135;79.98,Eawag,NA,NA,NA,NA,NA,NA
stpQQR890,"Ioxitalamic acid| 3-acetamido-5-(2-hydroxyethylcarbamoyl)-2,4,6-triiodo-benzoic acid",CC(=O)NC1=C(I)C(C(O)=O)=C(I)C(C(=O)NCCO)=C1I,643.7802,C12H11I3N2O5,"InChI=1S/C12H11I3N2O5/c1-4(19)17-10-8(14)5(11(20)16-2-3-18)7(13)6(9(10)15)12(21)22/h18H,2-3H2,1H3,(H,16,20)(H,17,19)(H,21,22)",CAS_RN: 28179-44-4,34536,OLAOYPRJVHUHCF-UHFFFAOYSA-N,31782,DTXSID60182457,Positive,EA034201|EA034202|EA034203|EA034204|EA034205|EA034206|EA034207|EA034208|EA034209|EA034210|EA034211|EA034212|EA034213|EA034214,[M+H]+,CID35|HCD15|HCD30|HCD45|HCD60|HCD75|HCD90|HCD15|HCD30|HCD45|HCD60|HCD75|HCD90|CID35,583.7347:516.8755:498.8642|583.7363:455.8222:428.8371|301.9312:272.9282:455.8229|301.9311:273.9362:455.8227|301.9312:273.9363:257.9411|273.936:301.9307:257.9413|105.0209:273.9369:131.0368|583.7353:455.8225:428.8352|301.9311:272.9282:455.8228|301.931:273.936:455.8218|301.9311:273.9361:257.9413|301.9311:273.936:231.9255|105.021:273.9364:257.941|583.7346:516.875:498.8647,583.735;516.87525;498.86445;455.8226;428.83615;301.9311;273.93615;272.9282;257.9412;231.9255;131.0368;105.02095,Eawag,NA,NA,NA,NA,NA,NA
stpQQR891,"Benzothiazole|Benzosulfonazole|1,3-benzothiazole",c12c(scn1)cccc2,135.0143,C7H5NS,InChI=1S/C7H5NS/c1-2-4-7-6(3-1)8-5-9-7/h1-5H,CAS_RN: 95-16-9,7222,IOJUPLGTWVMSFF-UHFFFAOYSA-N,6952,DTXSID7024586,Positive,AU405606;SM882102;EA034302|EA034303|EA034304|EA034305|EA034306|EA034307|EA034308|EA034309|EA034310|EA034311|EA034312|EA034313;UF420801|UF420802|UF420803,[M+H]+;[M+H]+;[M+H]+;[M+H]+,CIDRAMP 15.7-23.5;HCD35;HCD15|HCD30|HCD45|HCD60|HCD75|HCD90|HCD15|HCD30|HCD45|HCD60|HCD75|HCD90;HCD55|HCD80|CID35,136.0208:137.0239:138.015;136.0214:109.0106:65.0388;136.0216|136.0217|136.0217|136.0217:109.0108|136.0217:109.0107:77.0387|136.0217:109.0108:77.0387|136.0216|136.0217|136.0217|136.0217:109.0107|136.0217:109.0108:77.0386|136.0217:109.0108:65.0386;136.0219:109.011:105.0338|136.0219:109.011:77.0388|136.0219:105.0337,109.0108;105.03375;77.0387;65.0387,Athens_Univ;CASMI_2016;Eawag;UFZ,NA,NA,NA,NA,NA,NA
stpQQR892,"4,5-Dichloro-2-n-octyl-3(2H)-isothiazolone (DCOIT)|3(2H)-Isothiazolone, 4,5-dichloro-2-octyl-|4,5-bis(chloranyl)-2-octyl-1,2-thiazol-3-one",O=c1c(Cl)c(Cl)sn1CCCCCCCC,281.0402,C11H17Cl2NOS,"InChI=1S/C11H17Cl2NOS/c1-2-3-4-5-6-7-8-14-11(15)9(12)10(13)16-14/h2-8H2,1H3",CAS_RN: 64359-81-5,91688,PORQOHRXAJJKGK-UHFFFAOYSA-N,82791,DTXSID5032315,Positive,SM883402;EA034401|EA034402|EA034403|EA034404|EA034405|EA034406|EA034407|EA034408|EA034409|EA034410|EA034411|EA034412|EA034413|EA034414,[M+H]+;[M+H]+,HCD35;CID35|HCD15|HCD30|HCD45|HCD60|HCD75|HCD90|HCD15|HCD30|HCD45|HCD60|HCD75|HCD90|CID35,169.9228:282.0482:71.0856;169.9232|282.0483:169.9231:71.0854|169.923:282.048:71.0856|169.9231:57.0699:71.0856|169.9231:57.0699:71.0856|169.9229:134.954:57.0698|169.9227:134.9539:126.917|282.0481:169.9229:71.0854|169.923:282.0482:71.0855|169.923:57.0698:71.0855|169.9229:57.0698:71.0855|169.9227:57.0698:134.9539|169.9229:134.954:126.917|169.923,169.923;134.95395;126.917;71.0855;57.0698,CASMI_2016;Eawag,NA,NA,NA,NA,NA,NA
stpQQR893,"Terbumeton|2-N-tert-butyl-4-N-ethyl-6-methoxy-1,3,5-triazine-2,4-diamine|1,3,5-Triazine-2,4-diamine, N-(1,1-dimethylethyl)-N'-ethyl-6-methoxy-",c1(nc(nc(n1)OC)NCC)NC(C)(C)C,225.1584,C10H19N5O,"InChI=1S/C10H19N5O/c1-6-11-7-12-8(15-10(2,3)4)14-9(13-7)16-5/h6H2,1-5H3,(H2,11,12,13,14,15)",CAS_RN: 33693-04-8,36584,BCQMBFHBDZVHKU-UHFFFAOYSA-N,33617,DTXSID1042445,Positive,EA034601|EA034602|EA034603|EA034604|EA034605|EA034606|EA034607|EA034608|EA034609|EA034610|EA034611|EA034612|EA034613|EA034614,[M+H]+,CID35|HCD15|HCD30|HCD45|HCD60|HCD75|HCD90|HCD15|HCD30|HCD45|HCD60|HCD75|HCD90|CID35,170.1039:114.0667:142.0719|226.1665|226.1664:170.1038|170.1039:226.1664:142.0724|170.1039:142.0725:114.0663|170.1035:142.0724:100.0506|100.0506:69.0084:75.0553|226.1664:170.1037|226.1665:170.1039|170.1039:226.1664:142.0724|170.1038:142.0725:114.0663|170.1037:142.0724:100.0506|100.0506:69.0084:75.0553|170.1038:114.0662:226.167,170.1038;142.0724;114.0663;100.0506;75.0553;69.0084,Eawag,NA,NA,NA,NA,NA,NA
stpQQR894,"Terbutylazine-2-hydroxy|4-(Ethylamino)-6-[(2-methyl-2-propanyl)amino]-1,3,5-triazin-2(5H)-one",CCNC1=NC(O)=NC(NC(C)(C)C)=N1,211.1433,C9H17N5O,"InChI=1S/C9H17N5O/c1-5-10-6-11-7(13-8(15)12-6)14-9(2,3)4/h5H2,1-4H3,(H3,10,11,12,13,14,15)",CAS_RN: 66753-07-9,5151089,OYTCZOJKXCTBHG-UHFFFAOYSA-N,4324299,DTXSID20216888,Positive/Negative,AU208101|AU208102|AU208103|AU208104|AU208105;SM844901;EA034701|EA034702|EA034703|EA034704|EA034705|EA034706|EA034707|EA034708|EA034709|EA034710|EA034711|EA034712|EA034713|EA034714,[M+H]+;[M+H]+;[M+H]+,CID10|CID20|CID30|CID40|CID50;HCD35;CID35|HCD15|HCD30|HCD45|HCD60|HCD75|HCD90|HCD15|HCD30|HCD45|HCD60|HCD75|HCD90|CID35,212.15:156.0869:213.1528|156.0872:157.0892:212.1499|156.0872:114.0658:128.0557|156.0871:114.0655:128.0557|156.0867:114.0671:128.0554;128.0261:99.0553:126.0105;156.088:86.0348:170.1039|212.1505:156.0879|212.1506:156.088:86.0349|156.0879:212.1503:86.0349|156.0879:114.0661:86.0349|156.0879:86.0349:114.0662|69.0084:86.0349:114.0662|212.1506:156.088|212.1504:156.0879:57.0697|156.088:212.1505:86.0349|156.0879:114.0661:86.0349|156.088:86.0349:114.0662|69.0083:86.0349:114.0661|156.088:86.0349:170.1037,170.1038;157.0892;156.0879;128.0557;128.0261;126.0105;114.0661;99.0553;86.0349;69.00835;57.0697,Athens_Univ;CASMI_2016;Eawag,EA034751|EA034752|EA034753|EA034754|EA034755|EA034756|EA034757|EA034758|EA034759|EA034760|EA034761|EA034762|EA034763,[M-H]-,CID35|HCD15|HCD30|HCD45|HCD60|HCD75|HCD90|HCD15|HCD30|HCD45|HCD60|HCD75|HCD90,154.0737:97.0773:210.1361|210.1361:154.0744|210.1361:154.0732:97.0773|210.136:97.0772:154.0734|97.0772:154.0735:69.0458|97.0772:154.0742:69.0458|97.0772|210.136:154.0736|210.136:154.0733:97.0771|210.1359:154.0734:97.0772|97.0771:154.0732:210.1363|97.0771:154.0739:69.0457|97.0771:81.0459:69.0458,210.13605;154.0735;97.0772;81.0459;69.0458,Eawag
stpQQR895,Metolachlor ESA|2-[(2-Ethyl-6-methylphenyl)(1-methoxy-2-propanyl)amino]-2-oxoethanesulfonic acid,O=S(O)(CC(N(C(C)COC)C1=C(CC)C=CC=C1C)=O)=O,329.1297,C15H23N1O5S1,"InChI=1S/C15H23NO5S/c1-5-13-8-6-7-11(2)15(13)16(12(3)9-21-4)14(17)10-22(18,19)20/h6-8,12H,5,9-10H2,1-4H3,(H,18,19,20)",CAS_RN: 171118-09-5,6426849,CIGKZVUEZXGYSV-UHFFFAOYSA-N,4932269,DTXSID1037567,Positive/Negative,AU206001|AU206002|AU206003|AU206004|AU206005;SM868601;EA050201|EA050202|EA050203|EA050204|EA050205|EA050206|EA050207|EA050208|EA050209|EA050210|EA050211|EA050212|EA050213|EA050214,[M+H]+;[M+H]+;[M+H]+,CID10|CID20|CID30|CID40|CID50;HCD35;CID35|HCD15|HCD30|HCD45|HCD60|HCD75|HCD90|HCD15|HCD30|HCD45|HCD60|HCD75|HCD90|CID35,330.1367:298.11:299.1141|298.1108:300.1098:202.1223|298.1102:202.1213:160.111|202.1215:160.111:176.1421|160.1106:174.1267:202.1217;298.111:202.1227:330.1372;298.1108|298.1104:330.1367|298.1105:202.1234:73.0649|298.1106:202.1224:160.112|202.1225:160.112:174.1276|160.1119:202.1225:174.1276|160.112:145.0885:174.1279|298.1105:330.1367|298.1106:202.1227:73.0648|298.1105:202.1225:160.1121|202.1225:160.112:174.1275|160.112:202.1226:174.1277|160.112:145.0885:174.1276|298.1107,300.1098;299.1141;298.11055;202.1225;176.1421;174.1276;160.112;145.0885;73.06485,Athens_Univ;CASMI_2016;Eawag,SM868651;EA050251|EA050252|EA050253|EA050254|EA050255|EA050256|EA050257|EA050258|EA050259|EA050260|EA050261|EA050262|EA050263|EA050264;UF405451|UF405452|UF405453|UF405454,[M-H]-;[M-H]-;[M-H]-,HCD35;CID35|HCD15|HCD30|HCD45|HCD60|HCD75|HCD90|HCD15|HCD30|HCD45|HCD60|HCD75|HCD90|CID35;HCD55|HCD80|CID35|CID55,328.1225:120.9595:135.0815;120.9603:192.034:296.0964|328.123|328.1228:120.9603:79.9575|79.9575:120.9603:328.1226|79.9574:120.9603:135.0816|79.9575:76.9704:135.0818|79.9575:76.9702:118.968|328.1228|328.1229:120.9604:79.9574|79.9574:328.1225:120.9602|79.9575:120.9604:76.9704|79.9575:135.0817:76.9703|79.9574:93.9733:135.0812|120.9603:192.0338:296.0964;328.122|328.1221:120.9601:192.0339|120.9601:192.0336:296.0962|120.9601:192.0336:296.096,328.1226;296.0963;192.0338;135.0816;120.9603;118.968;93.9733;79.9575;76.97035,CASMI_2016;Eawag;UFZ
stpQQR896,Diglyme|Diethylene glycol dimethyl ether|1-methoxy-2-(2-methoxyethoxy)ethane,COCCOCCOC,134.0943,C6H14O3,"InChI=1S/C6H14O3/c1-7-3-5-9-6-4-8-2/h3-6H2,1-2H3",CAS_RN: 111-96-6,8150,SBZXBUIDTXKZTM-UHFFFAOYSA-N,13839575,DTXSID1024621,Positive,EA064301|EA064302|EA064303|EA064304|EA064305|EA064306|EA064307|EA064308|EA064309|EA064310|EA064311|EA064312|EA064313|EA064314,[M+H]+,CID35|HCD15|HCD30|HCD45|HCD60|HCD75|HCD90|HCD15|HCD30|HCD45|HCD60|HCD75|HCD90|CID35,103.0754:59.0491|103.0752:59.0491:135.1012|103.0753:59.0491:135.1017|59.0491:103.0753|59.0491:103.0753|59.0491:103.0753|59.0491|103.0753:59.0491:135.1016|103.0753:59.0491:135.1016|59.0491:103.0753|59.0491:103.0752:135.1022|59.0491:103.075|59.0491:135.101|103.0754:59.0492:135.1013,103.0753;59.0491,Eawag,NA,NA,NA,NA,NA,NA
stpQQR897,"Pantoprazole|6-(difluoromethoxy)-2-[(3,4-dimethoxy-2-pyridinyl)methylsulfinyl]-1H-benzimidazole",COC1=C(C(=NC=C1)CS(=O)C2=NC3=C(N2)C=C(C=C3)OC(F)F)OC,383.0751,C16H15F2N3O4S,"InChI=1S/C16H15F2N3O4S/c1-23-13-5-6-19-12(14(13)24-2)8-26(22)16-20-10-4-3-9(25-15(17)18)7-11(10)21-16/h3-7,15H,8H2,1-2H3,(H,20,21)",CAS_RN: 102625-70-7,4679,IQPSEEYGBUAQFF-UHFFFAOYSA-N,4517,DTXSID4023416,Positive/Negative,SM833601;EA064401|EA064402|EA064403|EA064404|EA064405|EA064406|EA064407|EA064408|EA064409|EA064410|EA064411|EA064412|EA064413|EA064414,[M+H]+;[M+H]+,HCD35;CID35|HCD15|HCD30|HCD45|HCD60|HCD75|HCD90|HCD15|HCD30|HCD45|HCD60|HCD75|HCD90|CID35,138.055:200.0378:153.0785;200.0378:138.0551:168.0654|200.0376:138.055:384.082|138.055:200.0376:153.0784|138.055:200.0375:107.0729|138.055:200.0377:152.0706|138.0549:136.0392:152.0704|138.0549:136.0392:110.0601|200.0376:138.0548:384.0821|138.0549:200.0375:153.0784|138.0549:200.0375:122.06|138.0549:200.0374:152.0705|138.0549:136.0392:152.0705|138.0549:136.0392:110.06|200.0376:138.0548:168.0653,200.0376;168.06535;153.0784;152.0705;138.0549;136.0392;122.06;110.06005;107.0729,CASMI_2016;Eawag,SM833651;EA064451|EA064452|EA064453|EA064454|EA064455|EA064456|EA064457|EA064458|EA064459|EA064460|EA064461|EA064462|EA064463|EA064464,[M-H]-;[M-H]-,HCD35;CID35|HCD15|HCD30|HCD45|HCD60|HCD75|HCD90|HCD15|HCD30|HCD45|HCD60|HCD75|HCD90|CID35,229.9966:161.0156:209.9904;229.9965|229.9966:382.0683|229.9966|229.9966:161.0157:209.9908|161.0158:229.9967:161.9898|161.0157:161.9895:147.0199|161.0157:141.0095:147.0202|229.9965:382.0668|229.9966|229.9965:161.0156:209.9907|161.0156:229.9965:209.9896|161.0157:147.0203:161.9892|161.0157:141.0093:161.9893|229.9963,382.06755;229.9966;209.99055;161.9894;161.0157;147.0202;141.0094,CASMI_2016;Eawag