NORMAN_ID,NAME,SMILES,NEUTRAL_EXACT_MASS,FORMULA,StdInChI,CAS_RN,PUBCHEM_CID,InChIKey,CHEMSPIDER_ID,DTXSID,Preferable Ionization,MB_Records Positive Ionization,Adduct Positive Ionization,Ionisation type and collision energy Positive Ionization,Fragments Positive Ionization,Simplified_fragments_Positive,Institute Positive Ionization,MB_Records Negative Ionization,Adduct Negative Ionization,Ionisation type and collision energy Negative Ionization,Fragments Negative Ionization,Simplified_fragments_Negative,Institute Negative Ionization
stpQQR586,OCP_211.0633_15.3|1-(2-Chlorophenyl)piperazin-2-one|1-(2-chlorophenyl)piperazin-2-one,NA,210.056,C10H11ClN2O,NA,CAS_RN: 197967-66-1,NA,NA,NA,NA,Positive,ET130801|ET130802|ET130803|ET130804|ET130805|ET130806,[M+H]+,HCD15|HCD30|HCD45|HCD60|HCD75|HCD90,211.0634:183.0684:140.0261|211.0634:140.0261:183.0685|140.0262:72.0444:154.0417|140.0261:72.0443:154.0419|140.0262:118.0653:154.0417|140.0262:118.0652:119.073,183.06845;154.0417;140.02615;119.073;118.06525;72.04435,Eawag_Additional_Specs,NA,NA,NA,NA,NA,NA
stpQQR587,OCP_213.0790_13.3,NA,212.0716,C10H13ClN2O,NA,CAS_RN: NA,NA,NA,NA,NA,Positive,ET131002,[M+H]+,HCD160-0.41mz or 15 (mz>350) nominal units,154.0418:91.0543:79.0543,154.0418;91.0543;79.0543,Eawag_Additional_Specs,NA,NA,NA,NA,NA,NA
stpQQR588,OCP_211.0633_14.3|4-(2-chlorophenyl)piperazin-2-one,NA,210.056,C10H11ClN2O,NA,CAS_RN: NA,NA,NA,NA,NA,Positive,ET131201|ET131202|ET131203|ET131204|ET131205|ET131206,[M+H]+,HCD15|HCD30|HCD45|HCD60|HCD75|HCD90,211.0632:193.0524:95.0856|211.0629:193.0522:107.0854|193.053:123.0806:109.0649|81.0697:91.0541:79.0543|67.0542:79.0542:138.0106|91.0539:79.0541:95.0489,193.0524;138.0106;123.0806;109.0649;107.0854;95.0856;95.0489;91.054;81.0697;79.0542;67.0542,Eawag_Additional_Specs,NA,NA,NA,NA,NA,NA
stpQQR589,PAR_160.1122_8.5|Pargyline|N-benzyl-N-methylprop-2-yn-1-amine,CN(CC#C)CC1=CC=CC=C1,159.1048,C11H13N,"InChI=1S/C11H13N/c1-3-9-12(2)10-11-7-5-4-6-8-11/h1,4-8H,9-10H2,2H3",CAS_RN: 555-57-7,4688,DPWPWRLQFGFJFI-UHFFFAOYSA-N,4526,DTXSID3023423,Positive,EQ300401|EQ300402|EQ300403|EQ300404|EQ300405|EQ300406;ET140001|ET140002|ET140003|ET140004|ET140005,[M+H]+;[M+H]+,"HCD15|HCD30|HCD45|HCD60|HCD75|HCD90;HCD15, 30, 45, 60, 70 or 90|HCD15, 30, 45, 60, 70 or 90|HCD15, 30, 45, 60, 70 or 90|HCD15, 30, 45, 60, 70 or 90|HCD15, 30, 45, 60, 70 or 90",91.0543:160.1121:129.0699|91.0542:160.1121:129.0699|91.0542:160.1121:129.0699|91.0542:129.0699:68.0495|91.0543:65.0386:128.0621|91.0543:65.0386:128.0621;91.0543:65.0389:128.0622|91.0543:160.1122:129.07|91.0543:160.1123:129.0699|91.0543:160.1122:129.0699|91.0543:65.0389:68.0498,129.0699;128.0621;91.0543;68.04965;65.03875,Eawag;Eawag_Additional_Specs,NA,NA,NA,NA,NA,NA
stpQQR590,PAR_176.1070_9.1|Pargyline N-oxide|N-benzyl-N-methylprop-2-yn-1-amine oxide,C[N+]([O-])(CC#C)CC1=CC=CC=C1,175.0997,C11H13NO,"InChI=1S/C11H13NO/c1-3-9-12(2,13)10-11-7-5-4-6-8-11/h1,4-8H,9-10H2,2H3",CAS_RN: 74796-01-3,173313,NZCJCBZLNHDNCR-UHFFFAOYSA-N,151316,NA,Positive,EQ327101|EQ327102|EQ327103|EQ327104|EQ327105|EQ327106|EQ327107|EQ327108|EQ327109;ET140101|ET140102|ET140103|ET140104|ET140105,[M+H]+;[M+H]+,"HCD15|HCD30|HCD45|HCD60|HCD75|HCD90|HCD120|HCD150|HCD180;HCD15, 30, 45, 60, 70 or 90|HCD15, 30, 45, 60, 70 or 90|HCD15, 30, 45, 60, 70 or 90|HCD15, 30, 45, 60, 70 or 90|HCD15, 30, 45, 60, 70 or 90",91.0542:176.107:84.0444|91.0542:176.107:84.0444|91.0542:84.0444:176.107|91.0542:84.0444:65.0385|91.0541:65.0385:84.0444|91.0541:65.0385:84.0444|91.0541:65.0385:63.0229|65.0385:91.0541:63.0229|65.0385:91.0542:63.0229;91.0544:176.1074:60.0449|91.0544:176.1072:65.0389|91.0544:65.039:79.0544|91.0544:65.039:79.0546|91.0544:65.039:79.0545,91.0542;84.0444;79.0545;65.0385;63.0229;60.0449,Eawag;Eawag_Additional_Specs,NA,NA,NA,NA,NA,NA
stpQQR591,PAR_174.09141_15.0|Pargyline formamide,O=CN(CC#C)CC1=CC=CC=C1,173.0841,C11H11NO,"InChI=1S/C11H11NO/c1-2-8-12(10-13)9-11-6-4-3-5-7-11/h1,3-7,10H,8-9H2",CAS_RN: NA,NA,MOSRXMRJDACECK-UHFFFAOYSA-N,29338402,DTXSID80891675,Positive,ET140201|ET140202|ET140203|ET140204|ET140205|ET140206,[M+H]+,HCD15|HCD30|HCD45|HCD60|HCD75|HCD90,91.0543:129.0701:174.0915|91.0543:129.07:174.0915|91.0543:129.0699:96.089|91.0543:128.0621:129.0701|91.0543:65.0387:128.0622|91.0543:65.0387:128.0623,129.07005;128.0622;96.089;91.0543;65.0387,Eawag_Additional_Specs,NA,NA,NA,NA,NA,NA
stpQQR592,PAR_146.0966_8.3|N-propargylbenzylamine|N-benzylprop-2-yn-1-amine,C#CCNCC1=CC=CC=C1,145.0891,C10H11N,"InChI=1S/C10H11N/c1-2-8-11-9-10-6-4-3-5-7-10/h1,3-7,11H,8-9H2",CAS_RN: 1197-51-9,99277,LDYBFSGEBHSTOQ-UHFFFAOYSA-N,89687,DTXSID40152552,Positive,ET140301|ET140302|ET140303|ET140304|ET140305|ET140306,[M+H]+,HCD15|HCD30|HCD45|HCD60|HCD75|HCD90,91.0543:129.0699:146.0968|91.0543:129.0699:146.0966|91.0543:129.07:128.0622|91.0543:129.0701:128.0622|91.0543:65.0387:128.0623|91.0543:65.0387:128.0623,129.06995;128.06225;91.0543;65.0387,Eawag_Additional_Specs,NA,NA,NA,NA,NA,NA
stpQQR593,PAR_162.0915_14.7|N-benzyl-N-prop-2-ynylhydroxylamine,NA,161.0841,C10H11NO,NA,CAS_RN: NA,NA,NA,NA,NA,Positive,ET140401|ET140402|ET140403|ET140404|ET140405|ET140406,[M+H]+,HCD15|HCD30|HCD45|HCD60|HCD75|HCD90,91.0543|91.0543|91.0543:84.0443|91.0543|91.0543:84.0443:65.0387|91.0543:65.0386,91.0543;84.0443;65.03865,Eawag_Additional_Specs,NA,NA,NA,NA,NA,NA
stpQQR594,"PHE_241.1699_9.7|Pheniramine|N,N-dimethyl-3-phenyl-3-pyridin-2-ylpropan-1-amine",CN(C)CCC(c1ccccc1)c1ccccn1,240.1626,C16H20N2,"InChI=1S/C16H20N2/c1-18(2)13-11-15(14-8-4-3-5-9-14)16-10-6-7-12-17-16/h3-10,12,15H,11,13H2,1-2H3",CAS_RN: 86-21-5,4761,IJHNSHDBIRRJRN-UHFFFAOYSA-N,4597,DTXSID0023454,Positive,EQ300501|EQ300502|EQ300503|EQ300504|EQ300505|EQ300506|EQ300507|EQ300508|EQ300509;ET150001|ET150002|ET150003|ET150004|ET150005,[M+H]+;[M+H]+,"HCD15|HCD30|HCD45|HCD60|HCD75|HCD90|HCD120|HCD150|HCD180;HCD15, 30, 45, 60, 70 or 90|HCD15, 30, 45, 60, 70 or 90|HCD15, 30, 45, 60, 70 or 90|HCD15, 30, 45, 60, 70 or 90|HCD15, 30, 45, 60, 70 or 90",196.112:241.1699|196.112:241.1699|196.112:168.0808:167.0729|196.1121:168.0808:167.073|168.0808:196.1121:167.073|167.073:168.0808:91.0542|167.0729:118.0651:91.0542|167.073:166.0652:118.0651|139.0542:166.0651:140.0495;196.1122:241.1701:168.0805|196.1122:241.1701:167.0725|196.1123:168.081:167.073|196.1122:168.0809:167.0732|168.0809:196.1123:167.0733,196.11215;168.0808;167.073;166.06515;140.0495;139.0542;118.0651;91.0542,Eawag;Eawag_Additional_Specs,NA,NA,NA,NA,NA,NA
stpQQR595,"PHE_257.1648_10.4|Pheniramine N-Oxide|N,N-dimethyl-3-phenyl-3-pyridin-2-ylpropan-1-amine oxide",C[N+](C)([O-])CCC(C1=CC=CC=C1)C1=NC=CC=C1,256.1576,C16H20N2O,"InChI=1S/C16H20N2O/c1-18(2,19)13-11-15(14-8-4-3-5-9-14)16-10-6-7-12-17-16/h3-10,12,15H,11,13H2,1-2H3",CAS_RN: NA,222605,OBBDJQMNZLQVAZ-UHFFFAOYSA-N,193269,NA,Positive,AU207601|AU207602|AU207603|AU207604|AU207605;EQ325401|EQ325402|EQ325403|EQ325404|EQ325405|EQ325406|EQ325407|EQ325408|EQ325409;ET150201|ET150202|ET150203|ET150204|ET150205,[M+H]+;[M+H]+;[M+H]+,"CID10|CID20|CID30|CID40|CID50;HCD15|HCD30|HCD45|HCD60|HCD75|HCD90|HCD120|HCD150|HCD180;HCD15, 30, 45, 60, 70 or 90|HCD15, 30, 45, 60, 70 or 90|HCD15, 30, 45, 60, 70 or 90|HCD15, 30, 45, 60, 70 or 90|HCD15, 30, 45, 60, 70 or 90",196.1115:257.1646:197.1146|196.1115:197.1146:168.079|196.1117:197.1146:168.0794|196.1116:168.0795:167.0716|167.0716:168.079:196.1114;196.1121:257.1649|196.1121:257.1649|196.1121:168.0808:167.0728|196.1121:168.0808:167.073|168.0808:196.1121:167.073|167.073:168.0808:91.0542|167.073:118.0651:91.0542|167.073:166.0652:118.0651|139.0543:166.0652:140.0495;196.1124:257.1653:168.0813|196.1124:167.0729:168.0813|196.1124:168.0811:167.0731|196.1124:168.0811:167.0733|168.0811:196.1124:167.0734,197.1146;196.1121;168.0808;167.073;166.0652;140.0495;139.0543;118.0651;91.0542,Athens_Univ;Eawag;Eawag_Additional_Specs,NA,NA,NA,NA,NA,NA
stpQQR596,"PRI_260.1759_12.9|Primaquine|4-N-(6-methoxyquinolin-8-yl)pentane-1,4-diamine",COC1=CC2=CC=CN=C2C(NC(C)CCCN)=C1,259.1685,C15H21N3O,"InChI=1S/C15H21N3O/c1-11(5-3-7-16)18-14-10-13(19-2)9-12-6-4-8-17-15(12)14/h4,6,8-11,18H,3,5,7,16H2,1-2H3",CAS_RN: 90-34-6,4908,INDBQLZJXZLFIT-UHFFFAOYSA-N,4739,DTXSID8023509,Positive,EQ300901|EQ300902|EQ300903|EQ300904|EQ300905|EQ300906;ET160001|ET160002|ET160003|ET160004|ET160005,[M+H]+;[M+H]+,"HCD15|HCD30|HCD45|HCD60|HCD75|HCD90;HCD15, 30, 45, 60, 70 or 90|HCD15, 30, 45, 60, 70 or 90|HCD15, 30, 45, 60, 70 or 90|HCD15, 30, 45, 60, 70 or 90|HCD15, 30, 45, 60, 70 or 90",243.1491:86.0964:260.1755|86.0964:243.1492:175.0866|86.0964:175.0865:243.1492|86.0964:175.0865:69.0699|175.0865:86.0964:69.0699|132.0682:69.0699:175.0865;132.068:69.07:144.068|243.1489:86.0963:260.1754|86.0963:243.149:175.0864|86.0963:175.0863:243.1489|175.0864:86.0963:69.07,243.14905;175.0865;144.068;132.0681;86.0964;69.0699,Eawag;Eawag_Additional_Specs,NA,NA,NA,NA,NA,NA
stpQQR597,PRI_275.1391_17.2|8-(3-carboxy-1-methylpropylamino)-6-methoxyquinoline|4-[(6-methoxyquinolin-8-yl)amino]pentanoic acid,COC1=CC2=CC=CN=C2C(NC(C)CCC(O)=O)=C1,274.1317,C15H18N2O3,"InChI=1S/C15H18N2O3/c1-10(5-6-14(18)19)17-13-9-12(20-2)8-11-4-3-7-16-15(11)13/h3-4,7-10,17H,5-6H2,1-2H3,(H,18,19)",CAS_RN: 816-90-0,127542,KIMKJIXTIWKABF-UHFFFAOYSA-N,113154,NA,Positive,ET160101|ET160102|ET160103|ET160104|ET160105|ET160106,[M+H]+,HCD15|HCD30|HCD45|HCD60|HCD75|HCD90,257.1284:187.0962:60.0808|257.1284:175.0866:101.0598|257.1284:175.0866:55.0542|175.0866:55.0542:257.1285|55.0542:175.0865:132.0682|132.0681:55.0543:160.063,257.1284;187.0962;175.0866;160.063;132.06815;101.0598;60.0808;55.0542,Eawag_Additional_Specs,NA,NA,NA,NA,NA,NA
stpQQR598,PRI_247.1079_16.2|2-[(6-methoxyquinolin-8-yl)amino]propanoic acid,COC1=CC2=CC=CN=C2C(NC(C)C(O)=O)=C1,246.1004,C13H14N2O3,"InChI=1S/C13H14N2O3/c1-8(13(16)17)15-11-7-10(18-2)6-9-4-3-5-14-12(9)11/h3-8,15H,1-2H3,(H,16,17)",CAS_RN: NA,21139611,KCYRVQQKJYMPAM-UHFFFAOYSA-N,20000793,NA,Positive,ET160201|ET160202|ET160203|ET160204|ET160205|ET160206,[M+H]+,HCD15|HCD30|HCD45|HCD60|HCD75|HCD90,247.1075:201.1021:174.0784|201.102:247.1076:174.0787|201.102:174.0787:186.0787|201.1021:186.0787:174.0787|186.0787:145.076:158.0838|145.076:158.0838:186.0787,201.10205;186.0787;174.0787;158.0838;145.076,Eawag_Additional_Specs,NA,NA,NA,NA,NA,NA
stpQQR599,PRI_175.0866_12.2|8-Amino-6-methoxyquinoline|6-methoxyquinolin-8-amine,COC1=CC2=CC=CN=C2C(N)=C1,174.0793,C10H10N2O,"InChI=1S/C10H10N2O/c1-13-8-5-7-3-2-4-12-10(7)9(11)6-8/h2-6H,11H2,1H3",CAS_RN: 96-69-5,7023,YGGTVPCTAKYCSQ-UHFFFAOYSA-N,6756,DTXSID30237983,Positive,ET160301,[M+H]+,HCD160-0.41mz or 15 (mz>350) nominal units,132.0682:131.0604:160.0631,160.0631;132.0682;131.0604,Eawag_Additional_Specs,NA,NA,NA,NA,NA,NA
stpQQR600,PRI_302.1864_17.0|N-acetylprimaquine|N-[4-[(6-methoxyquinolin-8-yl)amino]pentyl]acetamide,COC1=CC2=CC=CN=C2C(NC(C)CCCNC(C)=O)=C1,301.179,C17H23N3O2,"InChI=1S/C17H23N3O2/c1-12(6-4-8-18-13(2)21)20-16-11-15(22-3)10-14-7-5-9-19-17(14)16/h5,7,9-12,20H,4,6,8H2,1-3H3,(H,18,21)",CAS_RN: NA,157027,YVURERLGLAYCCQ-UHFFFAOYSA-N,138213,NA,Positive,ET160401,[M+H]+,HCD160-0.41mz or 15 (mz>350) nominal units,128.107:175.0866:86.0964,175.0866;128.107;86.0964,Eawag_Additional_Specs,NA,NA,NA,NA,NA,NA
stpQQR601,PRI_273.1234_9.3,NA,272.1161,C15H16N2O3,NA,CAS_RN: NA,NA,NA,NA,NA,Positive,ET160501|ET160502|ET160503|ET160504|ET160505|ET160506,[M+H]+,HCD15|HCD30|HCD45|HCD60|HCD75|HCD90,273.1233|273.1231:175.0864:237.102|273.1232:99.044:175.0865|99.044:175.0866:273.1233|211.0865:71.0491:99.044|211.0865:71.0491:132.0681,237.102;211.0865;175.0865;132.0681;99.044;71.0491,Eawag_Additional_Specs,NA,NA,NA,NA,NA,NA
stpQQR602,PRI_275.1026_12.7|4-[(6-methoxyquinolin-8-yl)amino]-4-oxobutanoic acid,NA,274.0954,C14H14N2O4,NA,CAS_RN: NA,NA,NA,NA,NA,Positive,ET160601|ET160602|ET160603|ET160604|ET160605|ET160606,[M+H]+,HCD15|HCD30|HCD45|HCD60|HCD75|HCD90,275.1026:175.0502:257.0922|275.1026:175.0503:101.0597|175.0503:147.0553:55.0543|147.0553:55.0543:175.0503|147.0553:55.0543:59.0491|147.0553:55.0543:59.0492,257.0922;175.0503;147.0553;101.0597;59.04915;55.0543,Eawag_Additional_Specs,NA,NA,NA,NA,NA,NA
stpQQR603,PRI_303.1340_15.8,COC1=CC2=CC=CN=C2C(=C1)N(C=O)C(C)CCC(O)=O,302.1267,C16H18N2O4,"InChI=1S/C16H18N2O4/c1-11(5-6-15(20)21)18(10-19)14-9-13(22-2)8-12-4-3-7-17-16(12)14/h3-4,7-11H,5-6H2,1-2H3,(H,20,21)",CAS_RN: NA,NA,HWLCTPIUUFQVEK-UHFFFAOYSA-N,NA,NA,Positive,ET161201|ET161202|ET161203|ET161204|ET161205|ET161206,[M+H]+,HCD15|HCD30|HCD45|HCD60|HCD75|HCD90,303.1338:257.1526|303.1338:203.0812:257.1519|203.0814:303.1338:171.0552|171.0552:203.0813:55.0542|171.0552:55.0543:203.0813|171.0553:160.063:55.0543,257.15225;203.0813;171.0552;160.063;55.0543,Eawag_Additional_Specs,NA,NA,NA,NA,NA,NA
stpQQR604,PRI_261.1236_16.6,NA,260.1161,C14H16N2O3,NA,CAS_RN: NA,NA,NA,NA,NA,Positive,ET161503,[M+H]+,HCD160-0.41mz or 15 (mz>350) nominal units,201.1023:175.0868:174.0788,201.1023;175.0868;174.0788,Eawag_Additional_Specs,NA,NA,NA,NA,NA,NA
stpQQR605,"PYR_286.1915_11.5|Pyrilamine|N`-[(4-methoxyphenyl)methyl]-N,N-dimethyl-N`-pyridin-2-ylethane-1,2-diamine",COc1ccc(CN(CCN(C)C)c2ccccn2)cc1,285.1841,C17H23N3O,"InChI=1S/C17H23N3O/c1-19(2)12-13-20(17-6-4-5-11-18-17)14-15-7-9-16(21-3)10-8-15/h4-11H,12-14H2,1-3H3",CAS_RN: 91-84-9,4992,YECBIJXISLIIDS-UHFFFAOYSA-N,4818,DTXSID9023542,Positive,EQ300601|EQ300602|EQ300603|EQ300604|EQ300605|EQ300606;ET170001|ET170002|ET170003|ET170004|ET170005,[M+H]+;[M+H]+,"HCD15|HCD30|HCD45|HCD60|HCD75|HCD90;HCD15, 30, 45, 60, 70 or 90|HCD15, 30, 45, 60, 70 or 90|HCD15, 30, 45, 60, 70 or 90|HCD15, 30, 45, 60, 70 or 90|HCD15, 30, 45, 60, 70 or 90",241.1339:286.1917:121.065|121.065:241.1338:286.1916|121.065:241.1337:72.0808|121.065:91.0543:95.0493|121.065:91.0543:95.0493|121.065:91.0544:95.0493;121.0649:91.0543:95.0492|121.0649:91.0543:95.0492|241.1337:286.1916:121.0649|121.0649:241.1338:286.1917|121.0649:241.1338:72.081,241.1338;121.065;95.0493;91.0543;72.0809,Eawag;Eawag_Additional_Specs,NA,NA,NA,NA,NA,NA
stpQQR606,"PYR_302.1865_11.2|Pyrilamine N-oxide|2-[(4-methoxyphenyl)methyl-pyridin-2-ylamino]-N,N-dimethylethanamine oxide",COc1ccc(CN(CCN(C)(C)=O)c2ccccn2)cc1,301.179,C17H23N3O2,"InChI=1S/C17H23N3O2/c1-20(2,21)13-12-19(17-6-4-5-11-18-17)14-15-7-9-16(22-3)10-8-15/h4-11H,12-14H2,1-3H3",CAS_RN: 98982-99-1,127200,IQDUZGGMNVZTAI-UHFFFAOYSA-N,112904,DTXSID70891604,Positive,ET170101|ET170102|ET170103|ET170104|ET170105|ET170106,[M+H]+,HCD15|HCD30|HCD45|HCD60|HCD75|HCD90,241.1334:121.0644:119.0606|241.1334:121.0647:119.0604|121.0648:241.1335:119.0605|121.0648:91.0543:119.0605|121.0648:91.0542:95.0491|121.0648:91.0542:95.0491,241.1334;121.0648;119.0605;95.0491;91.0542,Eawag_Additional_Specs,NA,NA,NA,NA,NA,NA
stpQQR607,"PYR_272.1759_11.0|N-demethylpyrilamine|N`-[(4-methoxyphenyl)methyl]-N-methyl-N`-pyridin-2-ylethane-1,2-diamine",CNCCN(Cc1ccc(OC)cc1)c1ccccn1,271.1685,C16H21N3O,"InChI=1S/C16H21N3O/c1-17-11-12-19(16-5-3-4-10-18-16)13-14-6-8-15(20-2)9-7-14/h3-10,17H,11-13H2,1-2H3",CAS_RN: 104499-47-0,153224,LWKSMQXIHQRJJJ-UHFFFAOYSA-N,135044,DTXSID70146505,Positive,ET170201|ET170202|ET170203|ET170204|ET170205|ET170206,[M+H]+,HCD15|HCD30|HCD45|HCD60|HCD75|HCD90,121.0648:272.1757:241.1335|121.0648:241.1335:272.1754|121.0648|121.0648:91.0542:95.0492|121.0648:91.0543:95.0492|121.0648:91.0542:78.0464,241.1335;121.0648;95.0492;91.0542;78.0464,Eawag_Additional_Specs,NA,NA,NA,NA,NA,NA
stpQQR608,PYR_272.1759_8.8|O-Desmethyl Pyrilamine|4-[[2-(dimethylamino)ethyl-pyridin-2-ylamino]methyl]phenol,CN(C)CCN(Cc1ccc(O)cc1)c1ccccn1,271.1685,C16H21N3O,"InChI=1S/C16H21N3O/c1-18(2)11-12-19(16-5-3-4-10-17-16)13-14-6-8-15(20)9-7-14/h3-10,20H,11-13H2,1-2H3",CAS_RN: 57830-29-2,14076877,FCFBHFOEKQWQBR-UHFFFAOYSA-N,20482749,DTXSID80891579,Positive,ET170301|ET170302|ET170303|ET170304|ET170305|ET170306,[M+H]+,HCD15|HCD30|HCD45|HCD60|HCD75|HCD90,227.118:121.0765:166.1331|227.118:121.076:107.0492|121.0762:107.0493|121.076:107.0491:79.0542|107.0492:121.0758|107.0492:121.0759:79.0542,227.118;166.1331;121.076;107.0492;79.0542,Eawag_Additional_Specs,NA,NA,NA,NA,NA,NA
stpQQR609,PYR_273.1235_11.5,COc1ccc(CN(CC(O)=O)c2ccccn2)cc1,272.1161,C15H16N2O3,"InChI=1S/C15H16N2O3/c1-20-13-7-5-12(6-8-13)10-17(11-15(18)19)14-4-2-3-9-16-14/h2-9H,10-11H2,1H3,(H,18,19)",CAS_RN: NA,NA,PPJDHLMQESOTEN-UHFFFAOYSA-N,NA,DTXSID30891605,Positive,ET170401|ET170402|ET170403|ET170404|ET170405|ET170406,[M+H]+,HCD15|HCD30|HCD45|HCD60|HCD75|HCD90,121.0648:209.0812:165.0659|121.0648:163.0751:195.1018|121.0648:163.0752:135.0804|121.0648:91.0545:135.0808|121.0648:91.0543:78.0465|121.0648:91.0542:78.0464,209.0812;195.1018;165.0659;163.07515;135.0806;121.0648;91.0543;78.04645,Eawag_Additional_Specs,NA,NA,NA,NA,NA,NA
stpQQR610,PYR_300.1709_10.6|Pyrilamine formamide,COc1ccc(CN(CCN(C)C=O)c2ccccn2)cc1,299.1634,C17H21N3O2,"InChI=1S/C17H21N3O2/c1-19(14-21)11-12-20(17-5-3-4-10-18-17)13-15-6-8-16(22-2)9-7-15/h3-10,14H,11-13H2,1-2H3",CAS_RN: NA,NA,AGBYYCMLOLWSPS-UHFFFAOYSA-N,NA,DTXSID20891578,Positive,ET171001|ET171002|ET171003|ET171004|ET171005|ET171006,[M+H]+,HCD15|HCD30|HCD45|HCD60|HCD75|HCD90,121.0648|121.0649|121.0648|121.0648|121.0648:95.0488:91.0542|121.0646:91.0542:95.0488,121.0648;95.0488;91.0542,Eawag_Additional_Specs,NA,NA,NA,NA,NA,NA
stpQQR611,"PYR_166.1340_2.9|2-(2-Pyridylamino)ethyldimethylamine|N`,N`-dimethyl-N-pyridin-2-ylethane-1,2-diamine",CN(C)CCNc1ccccn1,165.1266,C9H15N3,"InChI=1S/C9H15N3/c1-12(2)8-7-11-9-5-3-4-6-10-9/h3-6H,7-8H2,1-2H3,(H,10,11)",CAS_RN: 23826-72-4,90273,PBPMFHCGVZTYHV-UHFFFAOYSA-N,81498,DTXSID20178533,Positive,ET171103,[M+H]+,HCD160-0.41mz or 15 (mz>350) nominal units,121.076:96.0444:72.0808,121.076;96.0444;72.0808,Eawag_Additional_Specs,NA,NA,NA,NA,NA,NA
stpQQR612,"SPI_298.2741_15.1|Spiroxamine|N-[(8-tert-butyl-1,4-dioxaspiro[4.5]decan-3-yl)methyl]-N-ethylpropan-1-amine",CCCN(CC)CC1COC2(CCC(CC2)C(C)(C)C)O1,297.2668,C18H35NO2,"InChI=1S/C18H35NO2/c1-6-12-19(7-2)13-16-14-20-18(21-16)10-8-15(9-11-18)17(3,4)5/h15-16H,6-14H2,1-5H3",CAS_RN: 118134-30-8,86160,PUYXTUJWRLOUCW-UHFFFAOYSA-N,77719,DTXSID1034212,Positive,SM840301;EA278901|EA278902|EA278903|EA278904|EA278905|EA278906|EA278907|EA278908|EA278909|EA278910|EA278911|EA278912|EA278913|EA278914;ET180001|ET180002|ET180003|ET180004|ET180005;UF401901|UF401902|UF401903|UF401904,[M+H]+;[M+H]+;[M+H]+;[M+H]+,"HCD35;CID35|HCD15|HCD30|HCD45|HCD60|HCD75|HCD90|HCD15|HCD30|HCD45|HCD60|HCD75|HCD90|CID35;HCD15, 30, 45, 60, 70 or 90|HCD15, 30, 45, 60, 70 or 90|HCD15, 30, 45, 60, 70 or 90|HCD15, 30, 45, 60, 70 or 90|HCD15, 30, 45, 60, 70 or 90;HCD55|HCD80|CID35|CID55",144.1383:298.2742:100.1121;144.1385:100.1122:240.2322|298.2743:144.1386|298.2742:144.1385:100.1122|144.1383:100.1121:298.2746|144.1384:100.1122:72.0808|100.1122:144.1384:72.0808|100.1121:72.0808:144.1382|298.2741:144.1381|298.2742:144.1384:100.1121|144.1384:100.1121:298.2741|144.1383:100.1121:72.0808|100.1122:144.1384:72.0808|100.1121:72.0808:144.1383|144.1384:100.1121:240.2321;144.1386:100.1122:72.081|100.1123:144.1386:72.081|100.1122:72.081:144.1385|100.1122:72.081:58.0656|298.2742:144.1384:100.1117;144.1381:100.112:72.0807|100.1119:144.1382:72.0806|144.1382:100.112:298.2741|144.1381:100.112:202.1227,240.23215;202.1227;144.1384;100.1121;72.0808;58.0656,CASMI_2016;Eawag;Eawag_Additional_Specs;UFZ,NA,NA,NA,NA,NA,NA
stpQQR613,SPI_328.2483_12.0,NA,327.241,C18H33NO4,NA,CAS_RN: NA,NA,NA,NA,NA,Positive,ET180101|ET180102|ET180103|ET180104|ET180105|ET180106,[M+H]+,HCD15|HCD30|HCD45|HCD60|HCD75|HCD90,328.2481:144.1382|144.1382:328.2481:100.112|144.1382:100.112:72.0807|100.112:144.1382:72.0807|100.112:72.0807:144.1383|100.112:72.0807:58.0652,144.1382;100.112;72.0807;58.0652,Eawag_Additional_Specs,NA,NA,NA,NA,NA,NA
stpQQR614,SPI_314.2691_15.4,NA,313.2617,C18H35NO3,NA,CAS_RN: NA,NA,NA,NA,NA,Positive,ET180201|ET180202|ET180203|ET180204|ET180205|ET180206,[M+H]+,HCD15|HCD30|HCD45|HCD60|HCD75|HCD90,314.269:160.1333:130.1227|160.1333:314.269:130.1227|130.1227:88.0757:160.1333|88.0757:130.1227:100.1121|88.0757:100.1121:60.0444|60.0444:88.0757:100.1121,160.1333;130.1227;100.1121;88.0757;60.0444,Eawag_Additional_Specs,NA,NA,NA,NA,NA,NA