NORMAN_ID,NAME,SMILES,NEUTRAL_EXACT_MASS,FORMULA,StdInChI,CAS_RN,PUBCHEM_CID,InChIKey,CHEMSPIDER_ID,DTXSID,Preferable Ionization,MB_Records Positive Ionization,Adduct Positive Ionization,Ionisation type and collision energy Positive Ionization,Fragments Positive Ionization,Simplified_fragments_Positive,Institute Positive Ionization,MB_Records Negative Ionization,Adduct Negative Ionization,Ionisation type and collision energy Negative Ionization,Fragments Negative Ionization,Simplified_fragments_Negative,Institute Negative Ionization
stpQQR730,"Metamitron-desamino|3-Methyl-6-phenyl-1,2,4-triazin-5-ol",c(ccc1C(=NN=C2C)C(=O)N2)cc1,187.0746,C10H9N3O1,"InChI=1S/C10H9N3O/c1-7-11-10(14)9(13-12-7)8-5-3-2-4-6-8/h2-6H,1H3,(H,11,12,14)",CAS_RN: 36993-94-9,181502,OUSYWCQYMPDAEO-UHFFFAOYSA-N,157884,DTXSID30190483,Positive/Negative,AU206401|AU206402|AU206403|AU206404|AU206405;EA000401|EA000402|EA000403|EA000404|EA000405|EA000406|EA000407|EA000408|EA000409|EA000410|EA000411|EA000412|EA000413|EA000414,[M+H]+;[M+H]+,CID10|CID20|CID30|CID40|CID50;CID35|HCD15|HCD30|HCD45|HCD60|HCD75|HCD90|HCD15|HCD30|HCD45|HCD60|HCD75|HCD90|CID35,188.081:189.0838:160.0858|160.0859:188.0811:161.0887|160.0859:119.0596:188.0809|160.0854:119.0598:130.064|160.0844:130.0635:119.0602;160.0871:119.0604:188.082|188.0821|188.0821:160.0871:119.0605|188.0821:160.0872:119.0605|160.0871:188.0817:104.0496|160.0871:104.0496:119.0606|104.0495:160.087:77.0386|188.0821:160.0869|188.082:160.087:119.0605|188.0821:160.0871:119.0605|160.0871:188.0821:104.0496|160.0871:104.0495:119.0604|104.0495:160.087:77.0387|160.0871:119.0605:104.0495,161.0887;160.08705;130.06375;119.0605;104.0495;77.03865,Athens_Univ;Eawag,EA000451|EA000452|EA000453|EA000454|EA000455|EA000456|EA000457|EA000458|EA000459|EA000460|EA000461|EA000462|EA000463|EA000464,[M-H]-,CID35|HCD15|HCD30|HCD45|HCD60|HCD75|HCD90|HCD15|HCD30|HCD45|HCD60|HCD75|HCD90|CID35,186.0678:117.0342|186.0678|186.0679|186.0678|186.0678:117.0348|186.0677:117.0349|117.0349|186.0678|186.0679|186.0678|186.0677:117.0348|186.0677:117.0347|186.067:117.0346|186.0678,186.0678;117.0348,Eawag
stpQQR731,"Bromoxynil|3,5-bis(bromanyl)-4-oxidanyl-benzenecarbonitrile",c1(cc(c(O)c(c1)Br)Br)C#N,274.8581,C7H3Br2N1O1,"InChI=1S/C7H3Br2NO/c8-5-1-4(3-10)2-6(9)7(5)11/h1-2,11H",CAS_RN: 1689-84-5,15531,UPMXNNIRAGDFEH-UHFFFAOYSA-N,14775,DTXSID3022162,Negative,NA,NA,NA,NA,NA,NA,SM844052;EA002451|EA002452|EA002453|EA002454|EA002455|EA002456|EA002457|EA002458|EA002459|EA002460|EA002461|EA002462|EA002463|EA002464,[M-H]-;[M-H]-,HCD35;CID35|HCD15|HCD30|HCD45|HCD60|HCD75|HCD90|HCD15|HCD30|HCD45|HCD60|HCD75|HCD90|CID35,273.8508:193.9246:166.9377;78.9189:273.8508|273.851|273.8509:78.9188|78.9189:273.8509:193.925|78.9189:273.8512:193.9241|78.9189:273.8501:193.9248|78.9189|273.8509|273.851:78.9189|78.9189:273.8508:193.9249|78.9189:273.8506:193.9252|78.9188:273.8512:193.9246|78.9188|78.9189:273.8505,273.8509;193.9248;166.9377;78.9189,CASMI_2016;Eawag
stpQQR732,4-Isopropylaniline|4-propan-2-ylaniline,c1(C(C)C)ccc(N)cc1,135.1048,C9H13N,"InChI=1S/C9H13N/c1-7(2)8-3-5-9(10)6-4-8/h3-7H,10H2,1-2H3",CAS_RN: 99-88-7,7464,LRTFPLFDLJYEKT-UHFFFAOYSA-N,13853758,DTXSID20243932,Positive,SM882201;EA005201|EA005202|EA005203|EA005204|EA005205|EA005206|EA005207|EA005208|EA005209|EA005210|EA005211|EA005212|EA005213|EA005214;UF414501|UF414502|UF414503|UF414504,[M+H]+;[M+H]+;[M+H]+,HCD35;CID35|HCD15|HCD30|HCD45|HCD60|HCD75|HCD90|HCD15|HCD30|HCD45|HCD60|HCD75|HCD90|CID35;HCD55|HCD80|CID35|CID55,136.112:94.0651:91.0542;136.112:94.065|136.112:94.0653|136.1119:94.0651|136.1119:94.065:147.092|136.1121:94.0651:91.0542|136.112:94.065:91.0541|94.065:91.0541:136.1119|136.1119:94.0649|136.112:94.065|136.112:94.065:147.0914|136.112:94.0651:91.0541|136.1119:94.065:91.0541|94.065:91.0541:136.1119|136.112:94.0651:121.0884;136.1126:94.0655:91.0546|94.0654:136.1127:91.0546|136.1126:94.0655:121.0892|94.0654:121.0891:105.0338,121.0891;105.0338;94.0651;91.0541,CASMI_2016;Eawag;UFZ,NA,NA,NA,NA,NA,NA
stpQQR733,"Metamitron|4-Amino-4,5-dihydro-3-methyl-6-phenyl-1,2,4-triazin-5-one|4-amino-3-methyl-6-phenyl-1,2,4-triazin-5-one",c(ccc1C(=NN=C2C)C(=O)N2N)cc1,202.086,C10H10N4O1,"InChI=1S/C10H10N4O/c1-7-12-13-9(10(15)14(7)11)8-5-3-2-4-6-8/h2-6H,11H2,1H3",CAS_RN: 41394-05-2,38854,VHCNQEUWZYOAEV-UHFFFAOYSA-N,35563,DTXSID7047568,Positive/Negative,AU353801|AU353802|AU353803|AU353804;SM840101;EA005801|EA005802|EA005803|EA005804|EA005805|EA005806|EA005807|EA005808|EA005809|EA005810|EA005811|EA005812|EA005813|EA005814;UF401701|UF401702|UF401703|UF401704,[M+H]+;[M+H]+;[M+H]+;[M+H]+,CID10|CID20|CID30|CID40;HCD35;CID35|HCD15|HCD30|HCD45|HCD60|HCD75|HCD90|HCD15|HCD30|HCD45|HCD60|HCD75|HCD90|CID35;HCD55|HCD80|CID35|CID55,203.0927:204.0947:175.0964|203.0927:175.0967:145.0381|175.0964:203.0911:174.0772|175.0966:118.0523;203.0927:175.0979:104.0495;175.0977:174.0789:106.0652|203.093|203.093:175.0976:174.0787|203.0928:175.0979:174.0788|175.0979:203.0922:104.0495|104.0495:175.0977:174.0786|104.0495:77.0386:175.0979|203.0929:175.0973:104.0491|203.093:175.098:174.0789|203.0929:175.098:174.0789|175.098:203.0929:104.0495|104.0496:175.0979:77.0386|104.0495:77.0386:175.0979|175.0979:174.0789:106.0652;175.0977:203.0926:104.0494|104.0493:175.0976:77.0384|203.0925:175.0977:174.0787|175.0977:174.0787:106.065,175.0977;174.07875;145.0381;118.0523;106.0652;104.0495;77.0386,Athens_Univ;CASMI_2016;Eawag;UFZ,EA005851|EA005852|EA005854|EA005855|EA005857|EA005858|EA005862|EA005864,[M-H]-,CID35|HCD15|HCD45|HCD60|HCD90|HCD15|HCD75|CID35,185.0594|201.0789|117.0345|117.0348|117.0346|201.0781|117.0343|185.0595,201.0785;185.05945;117.03455,Eawag
stpQQR734,Metolachlor morpholinone|4-(2-ethyl-6-methylphenyl)-5-methylmorpholin-3-one,O=C2N(c1c(cccc1C)CC)C(C)COC2,233.1416,C14H19N1O2,"InChI=1S/C14H19NO2/c1-4-12-7-5-6-10(2)14(12)15-11(3)8-17-9-13(15)16/h5-7,11H,4,8-9H2,1-3H3",CAS_RN: 120375-14-6,179957,DVBDYPDVNRJKNJ-UHFFFAOYSA-N,156619,NA,Positive,AU205902|AU205903|AU205904|AU205905;EA006701|EA006702|EA006703|EA006704|EA006705|EA006706|EA006707|EA006708|EA006709|EA006710|EA006711|EA006712|EA006713|EA006714,[M+H]+;[M+H]+,CID20|CID30|CID40|CID50;CID35|HCD15|HCD30|HCD45|HCD60|HCD75|HCD90|HCD15|HCD30|HCD45|HCD60|HCD75|HCD90|CID35,234.149:235.1521:206.1172|234.149:120.08:148.0746|120.0801:146.0954:160.1111|120.08:133.0514:146.0951;148.1121:206.1175:146.0965|234.1489|234.1489:146.0959:148.1123|234.1488:206.1174:148.0756|234.1489:120.0808:148.0756|120.0808:160.112:146.0964|120.0808:91.0542:118.0651|234.1488|234.1489:206.1174:146.0965|234.149:206.1176:148.0757|234.1489:120.0808:148.0757|120.0808:146.0964:148.1121|120.0808:118.0652:91.0542|148.1122:206.1176:146.0965,206.11745;160.11155;148.11215;148.0756;146.0964;133.0514;120.0808;118.06515;91.0542,Athens_Univ;Eawag,NA,NA,NA,NA,NA,NA
stpQQR735,"Orbencarb|N,N-diethylcarbamothioic acid S-[(2-chlorophenyl)methyl] ester",c1(CSC(N(CC)CC)=O)c(cccc1)Cl,257.0647,C12H16ClNOS,"InChI=1S/C12H16ClNOS/c1-3-14(4-2)12(15)16-9-10-7-5-6-8-11(10)13/h5-8H,3-4,9H2,1-2H3",CAS_RN: 34622-58-7,36867,LLLFASISUZUJEQ-UHFFFAOYSA-N,33829,DTXSID0058061,Positive,EA006901|EA006902|EA006903|EA006904|EA006905|EA006906|EA006907|EA006908|EA006909|EA006910|EA006911|EA006912|EA006913|EA006914,[M+H]+,CID35|HCD15|HCD30|HCD45|HCD60|HCD75|HCD90|HCD15|HCD30|HCD45|HCD60|HCD75|HCD90|CID35,100.0757:125.0153:72.0444|258.0717:100.0757:125.0151|125.0153:258.0719:100.0758|125.0154:100.0758:72.0445|125.0154:72.0445:100.0757|125.0153:89.0386:72.0444|125.0153:89.0386:98.9996|258.0717:100.0758:125.0152|125.0153:258.0716:100.0757|125.0153:100.0757:72.0444|125.0153:72.0444:100.0757|125.0153:89.0386:72.0444|125.0153:89.0386:98.9996|100.0757:125.0152:72.0444,125.0153;100.0757;98.9996;89.0386;72.0444,Eawag,NA,NA,NA,NA,NA,NA
stpQQR736,"Prosulfocarb|N,N-dipropylcarbamothioic acid S-(phenylmethyl) ester",C(N(CCC)C(SCc1ccccc1)=O)CC,251.1349,C14H21NOS,"InChI=1S/C14H21NOS/c1-3-10-15(11-4-2)14(16)17-12-13-8-6-5-7-9-13/h5-9H,3-4,10-12H2,1-2H3",CAS_RN: 52888-80-9,62020,NQLVQOSNDJXLKG-UHFFFAOYSA-N,55867,DTXSID3058119,Positive,SM839802;EA007101|EA007102|EA007103|EA007104|EA007105|EA007106|EA007107|EA007108|EA007109|EA007110|EA007111|EA007112|EA007113|EA007114;UF406301|UF406302|UF406303|UF406304,[M+H]+;[M+H]+;[M+H]+,HCD35;CID35|HCD15|HCD30|HCD45|HCD60|HCD75|HCD90|HCD15|HCD30|HCD45|HCD60|HCD75|HCD90|CID35;HCD55|HCD80|CID35|CID55,91.0542:252.1416:128.107;128.107:91.0542:86.0601|252.1418:91.054:128.107|91.0544:252.1415:128.107|91.0543:128.107:86.0601|91.0543:65.0385|91.0543:65.0386|91.0544:65.0386|252.1419:91.0541:128.1071|91.0543:252.1418:128.107|91.0543:128.107:86.0601|91.0543:65.0385|91.0543:65.0386:89.0384|91.0543:65.0386|128.1071:91.0543:86.0601;91.0541:128.1069:86.0598|91.0541|128.1069:91.0541:86.06|128.1068:91.0541:86.0599,128.107;91.0543;89.0384;86.0601;65.0386,CASMI_2016;Eawag;UFZ,NA,NA,NA,NA,NA,NA
stpQQR737,"Dichlobenil|2,6-Dichlorobenzonitrile|2,6-bis(chloranyl)benzenecarbonitrile",c1(c(cccc1Cl)Cl)C#N,170.9643,C7H3Cl2N,InChI=1S/C7H3Cl2N/c8-6-2-1-3-7(9)5(6)4-10/h1-3H,CAS_RN: 1194-65-6,3031,YOYAIZYFCNQIRF-UHFFFAOYSA-N,2923,DTXSID5032365,Positive,EA008402|EA008403|EA008404|EA008405|EA008406|EA008407|EA008408|EA008409|EA008410|EA008411|EA008412,[M+H]+,HCD15|HCD30|HCD45|HCD60|HCD75|HCD90|HCD15|HCD30|HCD45|HCD60|HCD75,171.9713|171.9714|171.9714|171.9711:164.0017|164.0011:171.9709|164.0009:100.0181|171.9715|171.9714|171.9715:164.0008|171.9714:164.0011|164.0009:171.9717:100.0184,164.001;100.01825,Eawag,NA,NA,NA,NA,NA,NA
stpQQR738,"2,6-Dichlorobenzamide|2,6-bis(chloranyl)benzamide",ClC1=C(C(N)=O)C(Cl)=CC=C1,188.9748,C7H5Cl2NO,"InChI=1S/C7H5Cl2NO/c8-4-2-1-3-5(9)6(4)7(10)11/h1-3H,(H2,10,11)",CAS_RN: 2008-58-4,16183,JHSPCUHPSIUQRB-UHFFFAOYSA-N,15359,DTXSID7022170,Positive,AU337401|AU337402|AU337403|AU337404|AU337405;SM842901;EA008501|EA008502|EA008503|EA008504|EA008505|EA008506|EA008507|EA008508|EA008509|EA008510|EA008511|EA008512|EA008513|EA008514;UF405101|UF405102|UF405103|UF405104,[M+H]+;[M+H]+;[M+H]+;[M+H]+,CID10|CID20|CID30|CID40|CID50;HCD35;CID35|HCD15|HCD30|HCD45|HCD60|HCD75|HCD90|HCD15|HCD30|HCD45|HCD60|HCD75|HCD90|CID35;HCD55|HCD80|CID35|CID55,189.9814:191.9783:172.9541|172.9541:174.9516:189.9814|172.9541:174.9516:173.9575|172.9541:174.9516:144.9599|172.9657:174.9623:144.9597;189.982:172.9555:171.9714;172.9555:146.9762:171.9716|189.982:172.9551|189.9821:172.9554:171.9713|172.9555:189.9821:171.9715|172.9556:189.9819:171.9715|172.9559:171.9714:164.0007|108.9838:164.0009:144.9604|189.9819:172.9548|189.982:172.9555:146.9761|172.9555:189.982:171.9714|172.9555:189.9819:172.9659|172.9555:172.9666:171.9715|172.9666:172.9555:108.9839|172.9555:146.9762:171.9714;172.9554:189.9819:171.9715|172.9554:171.9714:139.0058|172.9554:146.9762:171.9718|172.9554:146.9763:171.9715,174.9623;174.9516;173.9575;172.9555;171.9715;164.0008;146.9762;144.9599;139.0058;108.98385,Athens_Univ;CASMI_2016;Eawag;UFZ,NA,NA,NA,NA,NA,NA
stpQQR739,"Cyproconazole|2-(4-chlorophenyl)-3-cyclopropyl-1-(1,2,4-triazol-1-yl)-2-butanol",Cl-c(ccc1C(O)(CN(N=C2)C=N2)C(C(C3)C3)C)cc1,291.1133,C15H18ClN3O,"InChI=1S/C15H18ClN3O/c1-11(12-2-3-12)15(20,8-19-10-17-9-18-19)13-4-6-14(16)7-5-13/h4-7,9-12,20H,2-3,8H2,1H3",CAS_RN: 94361-06-5,86132,UFNOUKDBUJZYDE-UHFFFAOYSA-N,77706,DTXSID0032601,Positive,EA008601|EA008602|EA008603|EA008604|EA008605|EA008606|EA008607|EA008608|EA008609|EA008610|EA008611|EA008612|EA008613|EA008614;ET210001,[M+H]+;[M+H]+,CID35|HCD15|HCD30|HCD45|HCD60|HCD75|HCD90|HCD15|HCD30|HCD45|HCD60|HCD75|HCD90|CID35;HCD40,125.0152:138.9946|292.1212:70.0399:125.0147|70.04:292.1212:125.0152|70.04:125.0153:138.9944|70.04:125.0153:138.9945|125.0153:70.04:138.9945|125.0153:70.04:89.0386|292.1212:70.0399:125.0147|70.04:292.1211:125.0152|70.04:125.0153:138.9945|70.04:125.0153:138.9945|125.0153:70.04:138.9945|125.0153:70.04:89.0386|125.0153:138.9946:165.0466;70.04:125.0152:138.9945,165.0466;138.9945;125.0153;89.0386;70.04,Eawag;Eawag_Additional_Specs,NA,NA,NA,NA,NA,NA
stpQQR740,"Ioxynil|4-Hydroxy-3,5-diiodobenzonitrile|3,5-bis(iodanyl)-4-oxidanyl-benzenecarbonitrile",c1(cc(c(O)c(c1)I)I)C#N,370.8304,C7H3I2NO,"InChI=1S/C7H3I2NO/c8-5-1-4(3-10)2-6(9)7(5)11/h1-2,11H",CAS_RN: 1689-83-4,15530,NRXQIUSYPAHGNM-UHFFFAOYSA-N,14774,DTXSID8022161,Negative,NA,NA,NA,NA,NA,NA,EA008751|EA008752|EA008753|EA008754|EA008755|EA008756|EA008757|EA008758|EA008759|EA008760|EA008761|EA008762|EA008763|EA008764,[M-H]-,CID35|HCD15|HCD30|HCD45|HCD60|HCD75|HCD90|HCD15|HCD30|HCD45|HCD60|HCD75|HCD90|CID35,126.905:369.8226:242.9186|369.8233:126.9046|369.823:126.905|126.9051:369.8229:230.9195|126.9051:116.0143:369.8243|126.905:116.0143|126.9049:116.0144:65.0032|369.823|369.8231:126.905|126.9051:369.823:116.0141|126.9051:116.0137:369.8222|126.9051:116.0137|126.905:116.0143:65.0034|126.9049:369.8225:242.9184,369.823;242.9185;230.9195;126.905;116.0143;65.0033,Eawag
stpQQR741,Chloridazon|5-amino-4-chloro-2-phenyl-3-pyridazinone,ClC(=C(N)C=N1)C(=O)N1-c(ccc2)cc2,221.035,C10H8Cl1N3O1,"InChI=1S/C10H8ClN3O/c11-9-8(12)6-13-14(10(9)15)7-4-2-1-3-5-7/h1-6H,12H2",CAS_RN: 1698-60-8,15546,WYKYKTKDBLFHCY-UHFFFAOYSA-N,14790,DTXSID3034872,Positive/Negative,AU330002|AU330003|AU330004|AU330005;SM840201;EA008801|EA008802|EA008803|EA008804|EA008805|EA008806|EA008807|EA008808|EA008809|EA008810|EA008811|EA008812|EA008813|EA008814;UF401801|UF401802|UF401803|UF401804,[M+H]+;[M+H]+;[M+H]+;[M+H]+,CID20|CID40|CID40|CID50;HCD35;CID35|HCD15|HCD30|HCD45|HCD60|HCD75|HCD90|HCD15|HCD30|HCD45|HCD60|HCD75|HCD90|CID35;HCD55|HCD80|CID35|CID55,222.0424:224.0395:223.0452|222.0424:224.0395:146.0104|146.011:222.0424:128.9843|146.0105:130.0642:150.0095;222.0428:104.0495:92.0495;104.0495:222.0428:186.0662|222.043:77.0383|222.0431:104.0496:77.0383|222.0431:104.0496:92.0495|222.0428:104.0495:92.0495|92.0496:104.0496:222.0432|92.0495:77.0386:65.0386|222.043:77.0383|222.0431:104.0495|222.0431:104.0495:92.0495|222.043:104.0495:92.0495|92.0495:104.0495:222.0428|92.0495:77.0386:65.0386|104.0495:186.0661:193.0288;222.0427:104.0494:92.0494|92.0494:104.0494:77.0385|222.0426:104.0494:186.0662|104.0493:186.066:205.0162,205.0162;193.0288;186.06615;150.0095;146.0105;130.0642;128.9843;104.0495;92.0495;77.0384;65.0386,Athens_Univ;CASMI_2016;Eawag;UFZ,SM840252;EA008851|EA008852|EA008853|EA008854|EA008855|EA008856|EA008857|EA008858|EA008859|EA008860|EA008861|EA008862|EA008863|EA008864;UF401851|UF401852,[M-H]-;[M-H]-;[M-H]-,HCD35;CID35|HCD15|HCD30|HCD45|HCD60|HCD75|HCD90|HCD15|HCD30|HCD45|HCD60|HCD75|HCD90|CID35;HCD55|HCD80,220.0284:193.987;220.0284:73.9803:100.9912|220.0286|220.0285:73.9803:65.0145|220.0284:74.9643:150.0119|74.9643:117.046:150.0116|74.9643:117.046:73.9804|74.9643:117.0459:65.9984|220.0285|220.0286:73.9803:150.012|220.0283:74.9643:150.0116|74.9643:117.0457:150.0116|74.9642:117.0457:73.9803|74.9643:117.0459:73.9802|73.9802:184.0516:150.0114;220.0283|220.0288,220.02845;193.987;184.0516;150.0116;117.0459;100.9912;74.9643;73.9803;65.9984;65.0145,CASMI_2016;Eawag;UFZ
stpQQR742,Azoxystrobin|methyl (2E)-2-(2-{[6-(2-cyanophenoxy)pyrimidin-4-yl]oxy}phenyl)-3-methoxyacrylate,N#Cc1ccccc1Oc1ncnc(Oc2ccccc2\C(C(=O)OC)=C/OC)c1,403.1163,C22H17N3O5,"InChI=1S/C22H17N3O5/c1-27-13-17(22(26)28-2)16-8-4-6-10-19(16)30-21-11-20(24-14-25-21)29-18-9-5-3-7-15(18)12-23/h3-11,13-14H,1-2H3/b17-13+",CAS_RN: 131860-33-8,3034285,WFDXOXNFNRHQEC-GHRIWEEISA-N,2298772,DTXSID0032520,Positive,AU324501|AU324502|AU324503|AU324504|AU324505;SM840502;EA008901|EA008902|EA008903|EA008904|EA008905|EA008906|EA008907|EA008908|EA008909|EA008910|EA008911|EA008912|EA008913|EA008914,[M+H]+;[M+H]+;[M+H]+,CID10|CID20|CID30|CID40|CID50;HCD35;CID35|HCD15|HCD30|HCD45|HCD60|HCD75|HCD90|HCD15|HCD30|HCD45|HCD60|HCD75|HCD90|CID35,372.0983:404.1244:373.1012|372.0983:373.1012:344.1027|344.1031:372.0983:329.0794|329.0794:344.1028:330.0825|329.0793:183.0544:172.0384;372.098:344.103:329.0795;372.098|372.0974:404.1234|372.0977:344.1028:316.1073|329.079:344.1026:372.0974|329.079:183.0552:328.0713|172.0392:156.0443:200.0342|172.0393:156.0444:130.04|372.0976:404.1234:172.0398|372.0978:344.1027:316.1076|329.0793:344.1027:372.0976|329.0792:183.0553:328.0713|172.0394:156.0445:200.0342|172.0394:156.0444:130.0399|372.0976,373.1012;372.09775;344.10275;330.0825;329.0793;328.0713;316.10745;200.0342;183.0552;172.03935;156.0444;130.03995,Athens_Univ;CASMI_2016;Eawag,NA,NA,NA,NA,NA,NA
stpQQR743,"Metribuzin|1,2,4-Triazin-5(4H)-one, 4-amino-6-(1,1-dimethylethyl)-3-(methylthio)-|4-amino-6-tert-butyl-3-(methylthio)-1,2,4-triazin-5-one",S(C)C(=NN=C1C(C)(C)C)N(N)C1=O,214.0883,C8H14N4O1S1,"InChI=1S/C8H14N4OS/c1-8(2,3)5-6(13)12(9)7(14-4)11-10-5/h9H2,1-4H3",CAS_RN: 21087-64-9,30479,FOXFZRUHNHCZPX-UHFFFAOYSA-N,28287,DTXSID6024204,Positive,AU313001|AU313002|AU313003|AU313004|AU313005;SM838801;EA009001|EA009002|EA009003|EA009004|EA009005|EA009006|EA009007|EA009008|EA009009|EA009010|EA009011|EA009012|EA009013|EA009014,[M+H]+;[M+H]+;[M+H]+,CID10|CID20|CID30|CID40|CID50;HCD35;CID35|HCD15|HCD30|HCD45|HCD60|HCD75|HCD90|HCD15|HCD30|HCD45|HCD60|HCD75|HCD90|CID35,215.0956:216.0983:217.0919|215.0956:187.1006:216.0983|187.1:215.095:131.0376|156.0581:131.0378:184.0531|156.0577:141.0357:140.039;215.0961:187.1011:84.0807;187.1012:186.0822:131.0274|215.0963|215.0963:187.1012:186.0819|215.0964:187.1014:186.0823|187.1012:215.0954:131.0386|187.1011:74.0059:131.0386|74.0059:59.9902:58.0399|215.0962:186.0829:187.1006|215.0962:187.1012:186.0821|215.0962:187.1013:186.0822|187.1012:215.0963:131.0386|187.1013:74.006:131.0387|74.0059:59.9902:58.0399|187.1012:186.0822:131.0274,187.1012;186.0822;184.0531;156.0579;141.0357;140.039;131.0386;131.0274;84.0807;74.0059;59.9902;58.0399,Athens_Univ;CASMI_2016;Eawag,NA,NA,NA,NA,NA,NA
stpQQR744,"Metribuzin-diketo|4-amino-6-tert-butyl-2H-1,2,4-triazine-3,5-dione",O=C(NN=C1C(C)(C)C)N(N)C1=O,184.096,C7H12N4O2,"InChI=1S/C7H12N4O2/c1-7(2,3)4-5(12)11(8)6(13)10-9-4/h8H2,1-3H3,(H,10,13)",CAS_RN: 56507-37-0,41909,AHBXXEZLRFCZSF-UHFFFAOYSA-N,38241,DTXSID9037616,Positive/Negative,EA009301|EA009302|EA009303|EA009304|EA009305|EA009306|EA009307|EA009308|EA009309|EA009310|EA009311|EA009312|EA009313|EA009314,[M+H]+,CID35|HCD15|HCD30|HCD45|HCD60|HCD75|HCD90|HCD15|HCD30|HCD45|HCD60|HCD75|HCD90|CID35,157.1084:101.0345:141.0658|185.1032|185.103:157.1083:101.0344|185.1033:157.1085:69.0699|185.1031:157.1082:57.0698|157.1082:57.0698:185.1033|57.0698:96.0443:141.0658|185.1032:157.1084|185.1033:157.1084:101.0346|185.1032:157.1085:69.0699|185.1032:157.1083:57.0698|157.1083:57.0698:111.0678|57.0698:96.0443:141.0657|157.1083:101.0345:141.0657,157.1083;141.06575;111.0678;101.0345;96.0443;69.0699;57.0698,Eawag,EA009352|EA009353|EA009354|EA009358|EA009359,[M-H]-,HCD15|HCD30|HCD45|HCD15|HCD30,183.089|183.0891|183.0889|183.0888|183.089,183.089,Eawag
stpQQR745,Phenmedipham|3-[(methoxycarbonyl)amino]phenyl (3-methylphenyl)carbamate,c1c(OC(Nc2cc(ccc2)C)=O)cccc1NC(OC)=O,300.1116,C16H16N2O4,"InChI=1S/C16H16N2O4/c1-11-5-3-6-12(9-11)18-16(20)22-14-8-4-7-13(10-14)17-15(19)21-2/h3-10H,1-2H3,(H,17,19)(H,18,20)",CAS_RN: 13684-63-4,24744,IDOWTHOLJBTAFI-UHFFFAOYSA-N,23134,DTXSID1024255,Positive,AU377901|AU377902|AU377903|AU377904|AU377905;EA009401|EA009402|EA009403|EA009404|EA009405|EA009406|EA009407|EA009408|EA009409|EA009410|EA009411|EA009412|EA009413|EA009414,[M+H]+;[M+H]+,CID10|CID20|CID30|CID40|CID50;CID35|HCD15|HCD30|HCD45|HCD60|HCD75|HCD90|HCD15|HCD30|HCD45|HCD60|HCD75|HCD90|CID35,168.0648:136.0383:169.0677|136.0387:168.065:137.0419|136.0383:168.0647:137.0416|136.0382:137.042:168.064|136.0386:137.0427;168.0655:136.0392|168.0655:136.0394|136.0392:168.0653:108.0442|136.0393:108.0443:168.0652|136.0392:108.0443:93.0333|136.0392:108.0443:93.0335|65.0386:108.0444:121.0396|168.0655:136.0393|136.0393:168.0655:108.0443|136.0392:108.0443:168.0655|136.0392:108.0443:93.0334|136.0392:108.0443:121.0395|65.0386:108.0444:93.0335|168.0655:136.0392,169.0677;168.0654;137.04195;136.0392;121.03955;108.0443;93.03345;65.0386,Athens_Univ;Eawag,NA,NA,NA,NA,NA,NA