NORMAN_ID,NAME,SMILES,NEUTRAL_EXACT_MASS,FORMULA,StdInChI,CAS_RN,PUBCHEM_CID,InChIKey,CHEMSPIDER_ID,DTXSID,Preferable Ionization,MB_Records Positive Ionization,Adduct Positive Ionization,Ionisation type and collision energy Positive Ionization,Fragments Positive Ionization,Simplified_fragments_Positive,Institute Positive Ionization,MB_Records Negative Ionization,Adduct Negative Ionization,Ionisation type and collision energy Negative Ionization,Fragments Negative Ionization,Simplified_fragments_Negative,Institute Negative Ionization
stpQQR469,"Perfluorooctanoic acid|2,2,3,3,4,4,5,5,6,6,7,7,8,8,8-pentadecafluorooctanoic acid",OC(=O)C(F)(F)C(F)(F)C(F)(F)C(F)(F)C(F)(F)C(F)(F)C(F)(F)F,413.9737,C8HF15O2,"InChI=1S/C8HF15O2/c9-2(10,1(24)25)3(11,12)4(13,14)5(15,16)6(17,18)7(19,20)8(21,22)23/h(H,24,25)",CAS_RN: 335-93-3,9554,SNGREZUHAYWORS-UHFFFAOYSA-N,9180,DTXSID8031865,Negative,NA,NA,NA,NA,NA,NA,SM877354;EA271751|EA271752|EA271753|EA271754|EA271757|EA271758|EA271759|EA271760,[M-H]-;[M-H]-,HCD35;CID35|HCD15|HCD30|HCD45|HCD90|HCD15|HCD30|HCD45,368.9761:168.9893;368.9771:168.9893:218.9863|368.9756:168.9891:218.9854|168.9893|168.9896|412.9758:368.9777|368.9768:168.9891:218.9856|168.9891:218.986|168.989:412.9771,368.9768;218.9858;168.9892,CASMI_2016;Eawag
stpQQR470,"Diuron|3-(3,4-dichlorophenyl)-1,1-dimethylurea",CN(C)C(=O)NC1=CC=C(Cl)C(Cl)=C1,232.01702,C9H10Cl2N2O,"InChI=1S/C9H10Cl2N2O/c1-13(2)9(14)12-6-3-4-7(10)8(11)5-6/h3-5H,1-2H3,(H,12,14)",CAS_RN: 330-54-1,3120,XMTQQYYKAHVGBJ-UHFFFAOYSA-N,3008,DTXSID0020446,Positive/Negative,AU341002|AU341003|AU341004|AU341005;SM877701;EA029201|EA029202|EA029203|EA029204|EA029205|EA029206|EA029207|EA029208|EA029209|EA029210|EA029211|EA029212|EA029213|EA029214,[M+H]+;[M+H]+;[M+H]+,CID20|CID30|CID40|CID50;HCD35;CID35|HCD15|HCD30|HCD45|HCD60|HCD75|HCD90|HCD15|HCD30|HCD45|HCD60|HCD75|HCD90|CID35,233.0237:235.021:187.9652|159.9703:161.9672:187.9652|159.9703:161.9672:132.9598|132.9595:125.0014:134.9565;72.0445:233.0244:159.9716;72.0444|233.0245:72.0443|233.0245:72.0444:187.9659|72.0444:233.0238:159.9714|72.0444:159.9715:187.9665|72.0444:159.9714:132.9608|72.0444:159.9714:132.9606|233.0244:72.0443|233.0244:72.0444:187.9664|72.0444:233.0241:187.9665|72.0444:159.9715:187.9664|72.0444:159.9715:132.9606|72.0444:159.9715:132.9606|72.0444:187.9661,187.96625;161.9672;159.97145;134.9565;132.9606;125.0014;72.0444,Athens_Univ;CASMI_2016;Eawag,AU341051|AU341052|AU341053|AU341054;SM877753;EA029251|EA029252|EA029253|EA029254|EA029255|EA029256|EA029257|EA029258|EA029259|EA029260|EA029261|EA029262|EA029263|EA029264;UF400451|UF400452|UF400453|UF400454,[M-H]-;[M-H]-;[M-H]-;[M-H]-,CID10|CID20|CID30|CID40;HCD35;CID35|HCD15|HCD30|HCD45|HCD60|HCD75|HCD90|HCD15|HCD30|HCD45|HCD60|HCD75|HCD90|CID35;HCD55|HCD80|CID35|CID55,231.0102:233.0077:232.0129|231.0107:185.9524:187.9495|149.9747:185.9521:187.9492|149.9764;231.0098:185.952:159.9727;185.9521:159.9726:231.0097|231.0098:185.9515|231.0097:185.9518:159.9728|185.952:231.0098:149.9751|185.9519:149.9751:231.01|149.9751:185.9517|149.9757|231.0095:185.9511|231.0095:185.9517:159.9725|185.9518:231.0094:149.9751|185.9517:149.9752:231.0094|149.975:185.9514|149.9755|185.952:159.9725:149.9749;231.0099|231.0099:197.9499|185.9518:197.9498|185.9518,231.0098;197.94985;187.94935;185.9518;159.9726;149.9751,Athens_Univ;CASMI_2016;Eawag;UFZ
stpQQR471,Diazinone|diethoxy-(6-methyl-2-propan-2-ylpyrimidin-4-yl)oxy-sulfanylidene-$l^{5}-phosphane,CCOP(=S)(OCC)OC1=CC(C)=NC(=N1)C(C)C,304.10105,C12H21N2O3PS,"InChI=1S/C12H21N2O3PS/c1-6-15-18(19,16-7-2)17-11-8-10(5)13-12(14-11)9(3)4/h8-9H,6-7H2,1-5H3",CAS_RN: 665-66-7,3017,FHIVAFMUCKRCQO-UHFFFAOYSA-N,2909,DTXSID9020407,Positive,AU312401|AU312402|AU312403|AU312404|AU312405;SM877901;EA029301|EA029302|EA029303|EA029304|EA029305|EA029306|EA029307|EA029308|EA029309|EA029310|EA029311|EA029312|EA029313|EA029314;UF400601|UF400602|UF400603,[M+H]+;[M+H]+;[M+H]+;[M+H]+,CID10|CID20|CID30|CID40|CID50;HCD35;CID35|HCD15|HCD30|HCD45|HCD60|HCD75|HCD90|HCD15|HCD30|HCD45|HCD60|HCD75|HCD90|CID35;HCD55|HCD80|CID35,305.1119:307.1064:169.0786|169.0788:305.1085:153.1014|169.0789:153.1013:249.0453|169.0787:153.1013:135.0907|169.0787:153.1014:135.0908;305.1085:169.0794:153.1023;169.0797:153.1026:277.0773|305.1087:169.0795|305.1082:169.0795:153.1023|169.0796:153.1024:96.9508|169.0794:153.1022:96.9507|169.0795:100.0216:96.9509|100.0216:96.9508:114.9614|305.1086:169.079:153.1021|305.1087:169.0795:153.1023|169.0795:153.1023:96.9508|169.0796:153.1024:96.9509|169.0795:100.0216:96.9508|100.0216:96.9508:114.9614|169.0795:153.1023:277.0771;169.0794:153.1021:96.9507|100.0215:169.0794:96.9507|169.0793:153.1021:100.0213,277.0772;249.0453;169.0794;153.10225;135.09075;114.9614;100.0216;96.9508,Athens_Univ;CASMI_2016;Eawag;UFZ,NA,NA,NA,NA,NA,NA
stpQQR472,Iminostilbene|11H-benzo[b][1]benzazepine,N1C2=CC=CC=C2C=CC2=CC=CC=C12,193.08915,C14H11N,"InChI=1S/C14H11N/c1-3-7-13-11(5-1)9-10-12-6-2-4-8-14(12)15-13/h1-10,15H",CAS_RN: 256-96-2,9212,LCGTWRLJTMHIQZ-UHFFFAOYSA-N,8857,DTXSID90871625,Positive,AU204802|AU204803|AU204804|AU204805;SM878003;EA099201|EA099202|EA099203|EA099204|EA099205|EA099206|EA099207|EA099208|EA099209|EA099210|EA099211|EA099212|EA099213|EA099214;UF413301|UF413302|UF413303|UF413304,[M+H]+;[M+H]+;[M+H]+;[M+H]+,CID20|CID30|CID40|CID50;HCD35;CID35|HCD15|HCD30|HCD45|HCD60|HCD75|HCD90|HCD15|HCD30|HCD45|HCD60|HCD75|HCD90|CID35;HCD55|HCD80|CID35|CID55,194.0957:195.0991:179.0723|194.0957:179.0711:195.0991|179.0715:194.0939:165.0683|193.0872:179.0708:152.0605;194.0965:193.0888:134.06;194.0969:193.0886:165.0696|194.0968:193.0893:179.0727|194.0967:193.0891:165.0694|194.0969:193.0894:179.0725|194.0966:193.0892:179.0731|194.0969:193.0892:179.0732|193.089:194.0968:179.0731|194.0967:193.0892|194.0967:193.0891|194.0967:193.089:165.0695|194.0967:193.0891:179.0731|194.0969:193.0892:179.0732|193.0889:194.0966:179.0732|194.0967:193.0887:179.0726;194.0972:179.0738:167.0863|194.0973:179.0738:116.05|194.0972:167.086|194.0972:179.0736:167.086,193.0891;179.0731;167.086;165.06945;152.0605;134.06;116.05,Athens_Univ;CASMI_2016;Eawag;UFZ,NA,NA,NA,NA,NA,NA
stpQQR473,"Triethylcitrate|triethyl 2-hydroxypropane-1,2,3-tricarboxylate",CCOC(=O)CC(O)(CC(=O)OCC)C(=O)OCC,276.1209,C12H20O7,"InChI=1S/C12H20O7/c1-4-17-9(13)7-12(16,11(15)19-6-3)8-10(14)18-5-2/h16H,4-8H2,1-3H3",CAS_RN: 77-93-0,6506,DOOTYTYQINUNNV-UHFFFAOYSA-N,13850879,DTXSID0040701,Positive,SM878101,[M+H]+,HCD35,157.0496:133.0495:203.0914,203.0914;157.0496;133.0495,CASMI_2016,NA,NA,NA,NA,NA,NA
stpQQR474,"Imazalil|1-[2-(2,4-dichlorophenyl)-2-prop-2-enoxyethyl]imidazole",ClC1=CC=C(C(CN2C=CN=C2)OCC=C)C(Cl)=C1,296.04832,C14H14Cl2N2O,"InChI=1S/C14H14Cl2N2O/c1-2-7-19-14(9-18-6-5-17-10-18)12-4-3-11(15)8-13(12)16/h2-6,8,10,14H,1,7,9H2",CAS_RN: 35554-44-0,37175,PZBPKYOVPCNPJY-UHFFFAOYSA-N,34116,DTXSID8024151,Positive,SM878201;UF400901|UF400902|UF400903|UF400904,[M+H]+;[M+H]+,HCD35;HCD55|HCD80|CID35|CID55,297.0558:158.9764:69.0448;158.9762:109.0759:172.9919|158.9761:81.0446:141.0698|255.0085:200.9867:158.9761|255.0087:200.9868:158.9763,255.0086;200.98675;172.9919;158.9762;141.0698;109.0759;81.0446;69.0448,CASMI_2016;UFZ,NA,NA,NA,NA,NA,NA
stpQQR475,"Fipronil|5-amino-1-[2,6-dichloro-4-(trifluoromethyl)phenyl]-4-(trifluoromethylsulfinyl)pyrazole-3-carbonitrile",NC1=C(C(=NN1C1=C(Cl)C=C(C=C1Cl)C(F)(F)F)C#N)S(=O)C(F)(F)F,435.93871,C12H4Cl2F6N4OS,"InChI=1S/C12H4Cl2F6N4OS/c13-5-1-4(11(15,16)17)2-6(14)8(5)24-10(22)9(7(3-21)23-24)26(25)12(18,19)20/h1-2H,22H2",CAS_RN: 75530-68-6,3352,ZOCSXAVNDGMNBV-UHFFFAOYSA-N,3235,DTXSID4034609,Positive/Negative,EA266601|EA266602|EA266603|EA266604|EA266605|EA266606|EA266607|EA266608|EA266609|EA266610|EA266611|EA266612|EA266613|EA266614,[M+H]+,CID35|HCD15|HCD30|HCD45|HCD60|HCD75|HCD90|HCD15|HCD30|HCD45|HCD60|HCD75|HCD90|CID35,367.9502|436.9443:367.9501|367.9502:289.9765:254.9684|254.9697:289.9755:221.0092|254.9696:221.0087:262.9657|221.0086:239.9591:254.9679|239.9579:185.0317:212.9473|436.9447:367.9503|367.9501:289.9751:254.9697|254.9697:289.9756:280.9758|254.9697:221.0089:239.9584|254.9703:239.9598:262.9638|212.9477:185.0321:227.9588|367.9499,367.95015;289.97555;280.9758;262.96475;254.9697;239.95875;227.9588;221.0088;212.9475;185.0319,Eawag,AU346451|AU346452|AU346453|AU346454|AU346455;SM878353;EA266651|EA266652|EA266653|EA266654|EA266655|EA266656|EA266657|EA266658|EA266659|EA266660|EA266661|EA266662|EA266663|EA266664,[M-H]-;[M-H]-;[M-H]-,CID10|CID20|CID30|CID40|CID50;HCD35;CID35|HCD15|HCD30|HCD45|HCD60|HCD75|HCD90|HCD15|HCD30|HCD45|HCD60|HCD75|HCD90|CID35,434.9311:329.9591:436.9275|329.9604:331.9578:365.9363|249.958:329.9604:317.9689|249.9596:183.0186:277.954|183.0177:249.9585:182.0109;329.9597:249.9586:277.9534;329.959:398.954:332.9619|329.9593:434.9318:398.954|329.9592:317.9689:249.9588|249.9584:277.953:281.9928|183.0175:249.958:267.99|183.0173:163.0111:143.0047|143.0049:163.0112:113.0145|329.959:434.9304:398.954|329.959:317.9687:249.9583|249.9582:277.9532:183.0174|183.0174:249.9581:267.9889|183.0175:163.0112:143.0048|143.005:163.0111:183.0173|329.959:398.9541:332.9621,434.9311;398.954;365.9363;332.962;331.9578;329.95915;317.9689;281.9928;277.9533;267.98945;249.95835;183.01745;182.0109;163.01115;143.00485;113.0145,Athens_Univ;CASMI_2016;Eawag
stpQQR476,"2-Methylbenzothiazole|2-methyl-1,3-benzothiazole",CC1=NC2=CC=CC=C2S1,149.02992,C8H7NS,"InChI=1S/C8H7NS/c1-6-9-7-4-2-3-5-8(7)10-6/h2-5H,1H3",CAS_RN: 120-75-2,8446,DXYYSGDWQCSKKO-UHFFFAOYSA-N,8138,DTXSID8049208,Positive,SM878603,[M+H]+,HCD35,152.0167:120.0445:110.0601,120.0445;110.0601,CASMI_2016,NA,NA,NA,NA,NA,NA
stpQQR477,Phenylbenzimidazolesulfonic acid|2-phenyl-3H-benzimidazol-1-ium-5-sulfonate,OS(=O)(=O)C1=CC=C2N=C(NC2=C1)C1=CC=CC=C1,274.04121,C13H10N2O3S,"InChI=1S/C13H10N2O3S/c16-19(17,18)10-6-7-11-12(8-10)15-13(14-11)9-4-2-1-3-5-9/h1-8H,(H,14,15)(H,16,17,18)",CAS_RN: 27503-81-7,33919,UVCJGUGAGLDPAA-UHFFFAOYSA-N,31267,DTXSID3038852,Positive/Negative,SM823802;SM878701;TUE00581|TUE00582|TUE00583,[M+H]+;[M+H]+;[M+H]+,HCD35;HCD35;NA10.0V|NA20.0V|NA40.0V,275.0484:194.0839:195.0917;275.0484:194.0839:195.0917;275.0487:194.0835|275.0486:194.0837:195.0917|194.0838:193.076:195.0919,195.0917;194.0838;193.076,CASMI_2016;CASMI_2016;Env_Anal_Chem_U_Tuebingen,SM823851;SM878751;TUE00585|TUE00586|TUE00587;UF417251|UF417252|UF417253|UF417254,[M-H]-;[M-H]-;[M-H]-;[M-H]-,HCD35;HCD35;NA10.0V|NA20.0V|NA40.0V;HCD55|HCD80|CID35|CID55,273.034:193.0771:209.0721;273.0341:193.0772:209.0716;273.0338:193.077|193.077:273.0337:209.0719|193.077:79.9571:208.0639;273.0339|273.0338:193.0769|193.0772|193.0771,273.03385;209.0719;208.0639;193.07705;79.9571,CASMI_2016;CASMI_2016;Env_Anal_Chem_U_Tuebingen;UFZ
stpQQR478,"Thiabendazole|4-(1H-benzimidazol-2-yl)-1,3-thiazole",N1C2=CC=CC=C2N=C1C1=CSC=N1,201.03607,C10H7N3S,"InChI=1S/C10H7N3S/c1-2-4-8-7(3-1)12-10(13-8)9-5-14-6-11-9/h1-6H,(H,12,13)",CAS_RN: 945-65-3,5430,WJCNZQLZVWNLKY-UHFFFAOYSA-N,5237,DTXSID0021337,Positive,AU106601|AU106604|AU106605;SM878801;EQ318001|EQ318002|EQ318003|EQ318004|EQ318005|EQ318006;UF401501|UF401502|UF401503|UF401504,[M+H]+;[M+H]+;[M+H]+;[M+H]+,CID18.1-27.1|CID40|CID50;HCD35;HCD15|HCD30|HCD45|HCD60|HCD75|HCD90;HCD55|HCD80|CID35|CID55,202.045:175.0332:131.0607|175.0321:131.0601:202.0435|131.0598:175.032:143.0601;202.0433:175.0325:131.0603;202.0433:175.0327:65.0386|202.0433:175.0327:65.0385|202.0433:175.0325:131.0604|202.0433:175.0325:131.0604|175.0325:202.0433:131.0604|175.0324:131.0604:202.0433;202.0432:175.0325:158.0714|175.0324:202.0433:131.0603|202.043:175.0323:158.071|175.0321:158.071:131.0601,175.0325;158.071;143.0601;131.06035;65.03855,Athens_Univ;CASMI_2016;Eawag;UFZ,NA,NA,NA,NA,NA,NA
stpQQR479,Tris(2-chloroethyl)phosphate,ClCCOP(=O)(OCCCl)OCCCl,283.95388,C6H12Cl3O4P,"InChI=1S/C6H12Cl3O4P/c7-1-4-11-14(10,12-5-2-8)13-6-3-9/h1-6H2",CAS_RN: 115-96-8,8295,HQUQLFOMPYWACS-UHFFFAOYSA-N,7994,DTXSID5021411,Positive,SM879001,[M+H]+,HCD35,62.9997:98.9842:284.9612,98.9842;62.9997,CASMI_2016,NA,NA,NA,NA,NA,NA
stpQQR480,Carbendazim|Methyl N-(1H-benzimidazol-2-yl)carbamate|methyl N-(1H-benzimidazol-2-yl)carbamate,COC(=O)NC1=NC2=CC=CC=C2N1,191.06948,C9H9N3O2,"InChI=1S/C9H9N3O2/c1-14-9(13)12-8-10-6-4-2-3-5-7(6)11-8/h2-5H,1H3,(H2,10,11,12,13)",CAS_RN: 59758-95-1,25429,TWFZGCMQGLPBSX-UHFFFAOYSA-N,23741,DTXSID4024729,Positive,SM879201;EQ027801|EQ027802|EQ027803|EQ027804|EQ027805|EQ027806|EQ027807|EQ027808|EQ027809;UF405001|UF405002|UF405003|UF405004,[M+H]+;[M+H]+;[M+H]+,HCD35;HCD15|HCD30|HCD45|HCD60|HCD75|HCD90|HCD120|HCD150|HCD180;HCD55|HCD80|CID35|CID55,160.0505:192.0767:132.0556;192.0767:160.0506:59.0127|160.0505:192.0767:59.0128|160.0505:192.0768:132.0555|160.0505:132.0557:192.0768|160.0505:132.0556:92.0495|160.0505:132.0557:105.0448|105.0448:132.0557:65.0386|65.0386:105.0448:90.0339|65.0386:105.0448:90.0339;160.0504:133.0639|160.0504:133.0633|160.0504|160.0504,160.0505;133.0636;132.05565;105.0448;92.0495;90.0339;65.0386;59.01275,CASMI_2016;Eawag;UFZ,NA,NA,NA,NA,NA,NA
stpQQR481,"Terbutryn|2-N-tert-butyl-4-N-ethyl-6-methylsulfanyl-1,3,5-triazine-2,4-diamine",CCNC1=NC(NC(C)(C)C)=NC(SC)=N1,241.13612,C10H19N5S,"InChI=1S/C10H19N5S/c1-6-11-7-12-8(15-10(2,3)4)14-9(13-7)16-5/h6H2,1-5H3,(H2,11,12,13,14,15)",CAS_RN: 886-50-0,13450,IROINLKCQGIITA-UHFFFAOYSA-N,12874,DTXSID3024318,Positive,SM879401;EA030601|EA030602|EA030603|EA030604|EA030605|EA030606|EA030607|EA030608|EA030609|EA030610|EA030611|EA030612|EA030613|EA030614,[M+H]+;[M+H]+,HCD35;CID35|HCD15|HCD30|HCD45|HCD60|HCD75|HCD90|HCD15|HCD30|HCD45|HCD60|HCD75|HCD90|CID35,186.0808:242.1434:91.0324;186.081:171.0572:242.1429|242.1436:186.0827:227.119|242.1437:186.0809|186.081:242.144:91.0324|186.0811:91.0326:138.0776|186.0811:91.0325:68.0243|68.0244:96.0557:91.0325|242.1435:186.0812:227.1205|242.1435:186.0809:227.1197|186.0808:242.1434:91.0325|186.0809:91.0325:158.0495|186.0809:91.0325:68.0243|68.0243:91.0324:96.0556|186.0809:171.0572:242.1431,227.1197;186.0809;171.0572;158.0495;138.0776;96.05565;91.0325;68.0243,CASMI_2016;Eawag,NA,NA,NA,NA,NA,NA
stpQQR482,"Octhilinone|2-Octyl-4-isothiazolin-3-one|2-Octyl-1,2-thiazol-3-one",CCCCCCCCN1SC=CC1=O,213.11874,C11H19NOS,"InChI=1S/C11H19NOS/c1-2-3-4-5-6-7-9-12-11(13)8-10-14-12/h8,10H,2-7,9H2,1H3",CAS_RN: 25339-53-1,33528,JPMIIZHYYWMHDT-UHFFFAOYSA-N,30932,DTXSID1025805,Positive,SM821001;EA030001|EA030002|EA030003|EA030004|EA030005|EA030006|EA030007|EA030008|EA030009|EA030010|EA030011|EA030012|EA030013|EA030014,[M+H]+;[M+H]+,HCD35;CID35|HCD15|HCD30|HCD45|HCD60|HCD75|HCD90|HCD15|HCD30|HCD45|HCD60|HCD75|HCD90|CID35,102.0009:214.1261:71.0856;102.0008:71.0855|214.126:102.0009:71.0853|214.1261:102.0008:71.0855|102.0007:71.0855:57.0698|102.0008:57.0698:71.0855|102.0008:57.0698:71.0854|102.0008:57.0698:83.9904|214.1261:102.0008:71.0854|214.1261:102.0008:71.0855|102.0008:214.1259:71.0855|102.0008:57.0698:71.0855|102.0008:57.0698:71.0855|102.0008:57.0698:83.9903|102.0008:71.0855,102.0008;83.99035;71.0855;57.0698,CASMI_2016;Eawag,NA,NA,NA,NA,NA,NA
stpQQR483,"Irgarol|Cybutryne|2-N-tert-butyl-4-N-cyclopropyl-6-methylsulfanyl-1,3,5-triazine-2,4-diamine",CSC1=NC(NC2CC2)=NC(NC(C)(C)C)=N1,253.13612,C11H19N5S,"InChI=1S/C11H19N5S/c1-11(2,3)16-9-13-8(12-7-5-6-7)14-10(15-9)17-4/h7H,5-6H2,1-4H3,(H2,12,13,14,15,16)",CAS_RN: 28159-98-0,91590,HDHLIWCXDDZUFH-UHFFFAOYSA-N,82701,DTXSID3032416,Positive,AU400801|AU400802|AU400803|AU400804|AU400805;SM879801;EA030201|EA030202|EA030203|EA030204|EA030205|EA030206|EA030207|EA030208|EA030209|EA030210|EA030211|EA030212|EA030213|EA030214;UF403401|UF403402|UF403403|UF403404,[M+H]+;[M+H]+;[M+H]+;[M+H]+,CID10|CID20|CID30|CID40|CID50;HCD35;CID35|HCD15|HCD30|HCD45|HCD60|HCD75|HCD90|HCD15|HCD30|HCD45|HCD60|HCD75|HCD90|CID35;HCD55|HCD80|CID35|CID55,254.1437:255.1457:198.0802|198.0807:254.1437:199.826|198.0807:199.0807:156.058|198.0807:156.0581:150.0763|156.0582:150.0759:198.0807;198.0809:254.1435:91.0325;198.0809:74.0056:183.057|254.1435:198.083|254.1432:198.0807|198.0808:254.144:91.0324|198.0808:91.0324:108.0556|198.0804:108.0555:91.0324|108.0556:83.0604:74.0059|254.1433:198.0805|254.1434:198.0808|198.0807:254.1433:91.0324|198.0807:91.0324:83.0603|198.0806:91.0324:108.0556|108.0556:83.0603:68.0243|198.0808;198.0807:91.0324:108.0556|108.0555:83.0603:91.0323|198.0805|198.0806,199.826;199.0807;198.0807;183.057;156.0581;150.0761;108.0556;91.0324;83.0603;74.00575;68.0243,Athens_Univ;CASMI_2016;Eawag;UFZ,NA,NA,NA,NA,NA,NA
stpQQR484,Benzotriazole|1H-Benzotriazole|2H-benzotriazole,N1N=NC2=CC=CC=C12,119.04835,C6H5N3,"InChI=1S/C6H5N3/c1-2-4-6-5(3-1)7-9-8-6/h1-4H,(H,7,8,9)",CAS_RN: 95-14-7,7220,QRUDEWIWKLJBPS-UHFFFAOYSA-N,6950,DTXSID6020147,Positive/Negative,AU405002|AU405003;SM819701;SM879903;EA016601|EA016602|EA016603|EA016604|EA016605|EA016606|EA016607|EA016608|EA016609|EA016610|EA016611|EA016612|EA016613|EA016614;TUE00161|TUE00162|TUE00163;UF417701|UF417702|UF417703|UF417704;UA000201|UA000203,[M+H]+;[M+H]+;[M+H]+;[M+H]+;[M+H]+;[M+H]+;[M+H]+,CID20|CID30;HCD35;HCD35;CID35|HCD15|HCD30|HCD45|HCD60|HCD75|HCD90|HCD15|HCD30|HCD45|HCD60|HCD75|HCD90|CID35;NA10.0V|NA20.0V|NA40.0V;HCD55|HCD80|CID35|CID55;CID35|CID35,120.0545:121.0582:65.0384|120.0549:65.0384:92.0494;120.0556:65.0387:92.0495;120.0556:92.0495:65.0387;120.0556:92.0494:65.0384|120.0557|120.0556:65.0386:92.0495|120.0556:92.0495:65.0385|120.0556:92.0494:65.0385|120.0556:65.0385:92.0494|120.0556:65.0386:92.0495|120.0556:92.0498|120.0556:65.0384:92.0497|120.0556:65.0385:92.0494|120.0555:92.0494:65.0385|120.0555:65.0385:92.0494|120.0555:65.0386:92.0495|120.0556:92.0494;120.0548:65.0379:92.0486|65.038:120.0546:92.0485|65.0379:39.0217:51.0218;120.0559:92.0498|120.056:92.0497|120.0559:92.0496:65.0386|92.0497:65.0386;92.0493:120.0554|92.0494:65.0384:120.0551,92.04945;65.0385;51.0218;39.0217,Athens_Univ;CASMI_2016;CASMI_2016;Eawag;Env_Anal_Chem_U_Tuebingen;UFZ;UFZ_Additional_Specs,EA016651|EA016652|EA016653|EA016654|EA016655|EA016656|EA016657|EA016658|EA016659|EA016660|EA016661|EA016662|EA016663|EA016664;TUE00165|TUE00166|TUE00167;UA000202,[M-H]-;[M-H]-;[M-H]-,CID35|HCD15|HCD30|HCD45|HCD60|HCD75|HCD90|HCD15|HCD30|HCD45|HCD60|HCD75|HCD90|CID35;NA10.0V|NA20.0V|NA40.0V;CID35,118.0412:90.0348|118.0412|118.0412:90.0348|118.0413:90.0349|118.0413:90.0349|118.0411:90.0349|118.0412:90.0349|118.0411|118.0412|118.0412:90.035|118.0411:90.0349|118.041:90.0348|118.041:90.0348|118.0411;118.0411:90.0347:50.0032|118.041:90.0347:50.0031|50.0032:40.0186:64.019;118.0412,118.0412;90.03485;64.019;50.0032;40.0186,Eawag;Env_Anal_Chem_U_Tuebingen;UFZ_Additional_Specs