NORMAN_ID,NAME,SMILES,NEUTRAL_EXACT_MASS,FORMULA,StdInChI,CAS_RN,PUBCHEM_CID,InChIKey,CHEMSPIDER_ID,DTXSID,Preferable Ionization,MB_Records Positive Ionization,Adduct Positive Ionization,Ionisation type and collision energy Positive Ionization,Fragments Positive Ionization,Simplified_fragments_Positive,Institute Positive Ionization,MB_Records Negative Ionization,Adduct Negative Ionization,Ionisation type and collision energy Negative Ionization,Fragments Negative Ionization,Simplified_fragments_Negative,Institute Negative Ionization
stpQQR697,8phiC8SPC (STANDARD)|Octacarboxy sulfophenyl carboxylic acid|8-(4-sulfophenyl)octanoic acid,OS(=O)(=O)c1ccc(CCCCCCCC(=O)O)cc1,300.1031,C14H20O5S,"InChI=1S/C14H20O5S/c15-14(16)7-5-3-1-2-4-6-12-8-10-13(11-9-12)20(17,18)19/h8-11H,1-7H2,(H,15,16)(H,17,18,19)",CAS_RN: NA,NA,KCKCVKAROJRVBA-UHFFFAOYSA-N,NA,DTXSID00891334,Positive/Negative,EQ357101|EQ357102|EQ357103|EQ357104|EQ357105|EQ357106|EQ357107|EQ357108|EQ357109,[M+H]+,HCD15|HCD30|HCD45|HCD60|HCD75|HCD90|HCD120|HCD150|HCD180,301.1105:283.0998:185.0267|185.0267:199.0424:171.0111|171.0111:185.0268:104.062|171.0111:104.0621:107.0492|107.0491:104.0621:171.0111|107.0491:104.0621:95.0492|95.0492:105.0448:78.0464|95.0492:51.023:78.0464|51.023:95.0492:89.0386,283.0998;199.0424;185.0267;171.0111;107.0491;105.0448;104.0621;95.0492;89.0386;78.0464;51.023,Eawag,EQ357151|EQ357152|EQ357153|EQ357154|EQ357155|EQ357156|EQ357157|EQ357158|EQ357159;ETS00017,[M-H]-;[M-H]-,HCD15|HCD30|HCD45|HCD60|HCD75|HCD90|HCD120|HCD150|HCD180;HCD80 NCE,299.0958:170.003|299.0958:170.0033:281.0843|299.0958:170.0044:281.0853|170.0044:299.0961:79.9574|170.0044:79.9574:183.0122|170.0044:79.9574:183.0122|79.9574:119.0503:63.9625|79.9574:63.9625:119.0503|79.9574:63.9625:119.0503;170.0044:79.9568:183.012,299.0958;281.0848;183.0122;170.0044;119.0503;79.9574;63.9625,Eawag;Eawag_Additional_Specs2
stpQQR698,SPA-8C (SAMPLE)|C8-sulfophenyl carboxylic acid|6-(4-sulfophenyl)octanoic acid,OS(=O)(=O)c1ccc(cc1)C(CC)CCCCC(=O)O,300.1031,C14H20O5S,"InChI=1S/C14H20O5S/c1-2-11(5-3-4-6-14(15)16)12-7-9-13(10-8-12)20(17,18)19/h7-11H,2-6H2,1H3,(H,15,16)(H,17,18,19)",CAS_RN: NA,NA,KNDYNZDDQSJMQR-UHFFFAOYSA-N,NA,NA,Negative,NA,NA,NA,NA,NA,NA,ETS00018,[M-H]-,HCD65 NCE,183.0119:79.9567:197.0276,197.0276;183.0119;79.9567,Eawag_Additional_Specs2
stpQQR699,10phiC10SPC (STANDARD)|Decacarboxy sulfophenyl carboxylic acid|10-(4-sulfophenyl)octanoic acid,OS(=O)(=O)c1ccc(CCCCCCCCCC(=O)O)cc1,328.1344,C16H24O5S,"InChI=1S/C16H24O5S/c17-16(18)9-7-5-3-1-2-4-6-8-14-10-12-15(13-11-14)22(19,20)21/h10-13H,1-9H2,(H,17,18)(H,19,20,21)",CAS_RN: NA,NA,VCKAUONIDRWIGP-UHFFFAOYSA-N,NA,DTXSID80891332,Positive/Negative,EQ357001|EQ357002|EQ357003|EQ357004|EQ357005|EQ357006|EQ357007|EQ357008|EQ357009,[M+H]+,HCD15|HCD30|HCD45|HCD60|HCD75|HCD90|HCD120|HCD150|HCD180,329.1418:311.1311:251.0002|185.0268:199.0424:213.0581|185.0268:171.0111:57.0699|171.0111:104.0621:107.0492|104.0621:107.0492:171.0111|107.0492:104.0621:95.0492|95.0492:91.0543:105.0448|95.0492:91.0543:78.0464|51.023:95.0492:89.0386,311.1311;251.0002;213.0581;199.0424;185.0268;171.0111;107.0492;105.0448;104.0621;95.0492;91.0543;89.0386;78.0464;57.0699;51.023,Eawag,EQ357051|EQ357052|EQ357053|EQ357054|EQ357055|EQ357056|EQ357057|EQ357058|EQ357059;ETS00020,[M-H]-;[M-H]-,HCD15|HCD30|HCD45|HCD60|HCD75|HCD90|HCD120|HCD150|HCD180;HCD80 NCE,327.1271|327.1271:309.1166|327.1271:170.0043:309.1166|170.0043:327.1274:79.9574|170.0043:183.0121:79.9574|170.0044:79.9574:183.0121|79.9574:119.0502:63.9625|79.9574:119.0502:63.9625|79.9574:63.9625:119.0502;170.0044:79.9568:183.0121,327.1271;309.1166;183.0121;170.0043;119.0502;79.9574;63.9625,Eawag;Eawag_Additional_Specs2
stpQQR700,SPA-10C (SAMPLE)|C10-sulfophenyl carboxylic acid|6-(4-sulfophenyl)decanoic acid,OS(=O)(=O)c1ccc(cc1)C(CCCC)CCCCC(=O)O,328.1344,C16H24O5S,"InChI=1S/C16H24O5S/c1-2-3-6-13(7-4-5-8-16(17)18)14-9-11-15(12-10-14)22(19,20)21/h9-13H,2-8H2,1H3,(H,17,18)(H,19,20,21)",CAS_RN: NA,NA,PLMAIIGPUFQJCH-UHFFFAOYSA-N,NA,NA,Negative,NA,NA,NA,NA,NA,NA,ETS00021,[M-H]-,HCD65 NCE,183.012:79.9567:197.0277,197.0277;183.012;79.9567,Eawag_Additional_Specs2
stpQQR701,"4,(6or7)-dimethyl benzotriazole (Tentative)",N/A,147.0796,C8H9N3,N/A,CAS_RN: NA,NA,NA,NA,NA,NA,NA,NA,NA,NA,NA,NA,NA,NA,NA,NA,NA,NA
stpQQR702,"Methyl-hydroxy-benzotriazole (TP5) (Tentative)|(4,5,6or7)-hydroxy-(4,5,6or7)-methyl benzotriazole",N/A,149.0589,C7H7N3O,N/A,CAS_RN: NA,NA,NA,NA,NA,NA,NA,NA,NA,NA,NA,NA,NA,NA,NA,NA,NA,NA
stpQQR703,"Methyl-hydroxy-benzotriazole (TP6) (Tentative)|(4,5,6or7)-hydroxy-(4,5,6or7)-methyl benzotriazole",N/A,149.0589,C7H7N3O,N/A,CAS_RN: NA,NA,NA,NA,NA,NA,NA,NA,NA,NA,NA,NA,NA,NA,NA,NA,NA,NA
stpQQR704,"Dihydroxy-benzotriazole (TP7) (Tentative)|(1,4,5,6and/or7)-dihydroxy-benzotriazole",N/A,151.0382,C6H5N3O2,N/A,CAS_RN: NA,NA,NA,NA,NA,NA,NA,NA,NA,NA,NA,NA,NA,NA,NA,NA,NA,NA
stpQQR705,"Dihydro-dihydroxy-benzotriazole (TP8) (Tentative)|(1,2,3,4,5,6and/or7)-dihydro-(1,4,5,6and/or7)-dihydroxy-benzotriazole",N/A,153.0538,C6H7N3O2,N/A,CAS_RN: NA,NA,NA,NA,NA,NA,NA,NA,NA,NA,NA,NA,NA,NA,NA,NA,NA,NA
stpQQR706,1H-Benzotriazole TP9 (Tentative)|1H-Benzotriazole Transformation Product 9 (TP9),N/A,155.033,C5H5N3O3,N/A,CAS_RN: NA,NA,NA,NA,NA,NA,NA,NA,NA,NA,NA,NA,NA,NA,NA,NA,NA,NA
stpQQR707,1H-Benzotriazole TP10 (Tentative)|1H-Benzotriazole Transformation Product 10 (TP10),N/A,155.033,C5H5N3O3,N/A,CAS_RN: NA,NA,NA,NA,NA,NA,NA,NA,NA,NA,NA,NA,NA,NA,NA,NA,NA,NA
stpQQR708,1H-Benzotriazole-4-carboxylic acid (Tentative)|1H-Benzotriazole-4-carboxylic acid|4-Methylbenzotriazole Transformation Product 31,O=C(O)c1cccc2nnnc12,163.0382,C7H5N3O2,"InChI=1S/C7H5N3O2/c11-7(12)4-2-1-3-5-6(4)9-10-8-5/h1-3H,(H,11,12)(H,8,9,10)",CAS_RN: NA,NA,KFJDQPJLANOOOB-UHFFFAOYSA-N,NA,DTXSID10212177,Positive,ETS00107,[M+H]+,HCDscaled 80 (m/z=200) to 110 (m/z=120),90.0329:164.0452:118.0285,118.0285;90.0329,Eawag_Additional_Specs2,NA,NA,NA,NA,NA,NA
stpQQR709,1H-Benzotriazole TP18 (Tentative)|1H-Benzotriazole Transformation Product 18 (TP18),N/A,177.0538,C8H7N3O2,N/A,CAS_RN: NA,NA,NA,NA,NA,NA,NA,NA,NA,NA,NA,NA,NA,NA,NA,NA,NA,NA
stpQQR710,1H-Benzotriazole TP19  (Tentative)|1H-Benzotriazole Transformation Product 19 (TP19),N/A,177.0538,C8H7N3O2,N/A,CAS_RN: NA,NA,NA,NA,NA,NA,NA,NA,NA,NA,NA,NA,NA,NA,NA,NA,NA,NA
stpQQR711,1H-Benzotriazole TP20 (Tentative)|1H-Benzotriazole Transformation Product 20 (TP20),N/A,183.028,C6H5N3O4,N/A,CAS_RN: NA,NA,NA,NA,NA,NA,NA,NA,NA,NA,NA,NA,NA,NA,NA,NA,NA,NA
stpQQR712,1H-Benzotriazole TP21 (Tentative)|1H-Benzotriazole Transformation Product 21 (TP21),N/A,183.028,C6H5N3O4,N/A,CAS_RN: NA,NA,NA,NA,NA,NA,NA,NA,NA,NA,NA,NA,NA,NA,NA,NA,NA,NA
stpQQR713,5-Methyl-1H-Benzotriazole TP42 (Tentative)|5-Methyl-1H-Benzotriazole Transformation Product 42 (TP42)|5-Methylbenzotriazole TP42,N/A,191.0695,C9H9N3O2,N/A,CAS_RN: NA,NA,NA,NA,NA,NA,NA,NA,NA,NA,NA,NA,NA,NA,NA,NA,NA,NA
stpQQR714,Benzotriazolyl-3-propanoic acid (TP22) (Tentative)|1H-Benzotriazole Transformation Product 22,N/A,191.0695,C9H9N3O2,N/A,CAS_RN: NA,NA,NA,NA,NA,NA,NA,NA,NA,NA,NA,NA,NA,NA,NA,NA,NA,NA
stpQQR715,Benzotriazolyl-3-propanoic acid (TP23) (Tentative)|1H-Benzotriazole Transformation Product 23,N/A,191.0695,C9H9N3O2,N/A,CAS_RN: NA,NA,NA,NA,NA,NA,NA,NA,NA,NA,NA,NA,NA,NA,NA,NA,NA,NA
stpQQR716,1-Methylbenzotriazole|1-Methyl-1H-benzotriazole,CN1C2=CC=CC=C2N=N1,133.064,C7H7N3,"InChI=1S/C7H7N3/c1-10-7-5-3-2-4-6(7)8-9-10/h2-5H,1H3",CAS_RN: NA,NA,HXQHRUJXQJEGER-UHFFFAOYSA-N,24133,DTXSID40158150,Positive,AU224001|AU224002|AU224003|AU224004|AU224005;EQ279801|EQ279802|EQ279803|EQ279804|EQ279805|EQ279806|EQ279807|EQ279808|EQ279809;ETS00115,[M+H]+;[M+H]+;[M+H]+,CID10|CID20|CID30|CID40|CID50;HCD15|HCD30|HCD45|HCD60|HCD75|HCD90|HCD120|HCD150|HCD180;HCDscaled 80 (m/z=200) to 110 (m/z=120),134.0716:135.0745|134.0716:135.0746:133.0633|134.0714:133.0632:135.0744|134.0714:133.063:117.0447|133.063:134.071;134.0714:72.0444:56.0495|134.0712:72.0444:56.0495|72.0444:134.0714:56.0495|72.0444:134.0716:56.0495|72.0445:79.0542:56.0496|79.0543:72.0444:56.0495|95.0492:79.0543:105.0448|51.023:95.0491:105.0449|51.023:95.0492:105.0447;134.0706:91.0409:77.0378,133.0631;117.0447;105.0448;95.0492;91.0409;79.0543;77.0378;72.0444;56.0495;51.023,Athens_Univ;Eawag;Eawag_Additional_Specs2,NA,NA,NA,NA,NA,NA
stpQQR717,1-Methoxymethylbenzotriazole|1-Methoxymethyl-1H-benzotriazole,n1nn(c2ccccc12)COC,163.1766,C8H9N3O,"InChI=1S/C8H9N3O/c1-12-6-11-8-5-3-2-4-7(8)9-10-11/h2-5H,6H2,1H3",CAS_RN: NA,NA,QEIXBXXKTUNWDK-UHFFFAOYSA-N,472332,DTXSID10337399,Positive,EQ318301|EQ318302|EQ318303|EQ318304|EQ318305|EQ318306|EQ318307|EQ318308|EQ318309;ETS00116,[M+H]+;[M+H]+,HCD15|HCD30|HCD45|HCD60|HCD75|HCD90|HCD120|HCD150|HCD180;HCDscaled 80 (m/z=200) to 110 (m/z=120),134.0713:164.082:132.0557|134.0713:164.082:132.0557|134.0713:132.0557:104.0495|134.0714:95.0492:79.0543|134.0713:95.0492:79.0543|95.0492:77.0386:134.0713|95.0492:51.023:77.0386|51.023:77.0386:95.0492|51.023:63.023:50.0152;134.0705:77.0378:105.0439,164.082;134.0713;132.0557;105.0439;104.0495;95.0492;79.0543;77.0386;63.023;51.023;50.0152,Eawag;Eawag_Additional_Specs2,NA,NA,NA,NA,NA,NA
stpQQR718,1-Hydroxybenzotriazole|1-Hydroxy-1H-benzotriazole,C1=CC=C2C(=C1)N=NN2O,135.0433,C6H5N3O,"InChI=1S/C6H5N3O/c10-9-6-4-2-1-3-5(6)7-8-9/h1-4,10H",CAS_RN: NA,NA,ASOKPJOREAFHNY-UHFFFAOYSA-N,68282,DTXSID3044627,Positive/Negative,AU223201|AU223202|AU223203;EQ289901|EQ289902|EQ289903|EQ289904|EQ289905|EQ289906|EQ289907|EQ289908|EQ289909;ETS00117,[M+H]+;[M+H]+;[M+H]+,CID10|CID20|CID30;HCD15|HCD30|HCD45|HCD60|HCD75|HCD90|HCD120|HCD150|HCD180;HCDscaled 80 (m/z=200) to 110 (m/z=120),136.0497:137.0529:119.047|136.0496:119.0471:137.0529|136.0502:119.0465;136.0506:91.0417:119.0479|136.0506:91.0417:119.0479|136.0506:91.0417:119.0479|136.0507:91.0417:119.0479|91.0417:136.0507:119.0479|91.0417:64.0308:119.0479|91.0417:64.0308:63.023|63.023:64.0308:52.0183|63.023:52.0183:64.0308;91.041:119.0472:64.0299,119.0479;91.0417;64.0308;63.023;52.0183,Athens_Univ;Eawag;Eawag_Additional_Specs2,EQ289951|EQ289952|EQ289953|EQ289954|EQ289955|EQ289956|EQ289957|EQ289958|EQ289959,[M-H]-,HCD15|HCD30|HCD45|HCD60|HCD75|HCD90|HCD120|HCD150|HCD180,134.036:106.0298:78.0349|134.036:106.0298:78.0349|134.036:106.0298:78.0349|134.036:78.0349:106.0298|78.0349:52.0192:134.036|52.0192:78.0349:50.0036|50.0036:52.0192:78.0349|50.0036:52.0192|50.0036,134.036;106.0298;78.0349;52.0192;50.0036,Eawag
stpQQR719,4-Methylbenzotriazole|4-Methyl-1H-benzotriazole,CC1=C2C(=CC=C1)NN=N2,133.064,C7H7N3,"InChI=1S/C7H7N3/c1-5-3-2-4-6-7(5)9-10-8-6/h2-4H,1H3,(H,8,9,10)",CAS_RN: NA,NA,CMGDVUCDZOBDNL-UHFFFAOYSA-N,109219,DTXSID50274037,Positive/Negative,AU405206;EQ279101|EQ279102|EQ279103|EQ279104|EQ279105|EQ279106|EQ279107|EQ279108|EQ279109;ETS00118;TUE00041|TUE00042|TUE00043,[M+H]+;[M+H]+;[M+H]+;[M+H]+,CIDRAMP 15.6-23.4;HCD15|HCD30|HCD45|HCD60|HCD75|HCD90|HCD120|HCD150|HCD180;HCDscaled 80 (m/z=200) to 110 (m/z=120);NA10.0V|NA20.0V|NA40.0V,134.0705:79.0534:95.0488;134.0712:79.0542:106.0651|134.0712:79.0542:106.0651|134.0712:79.0542:106.0651|134.0712:79.0542:106.0651|134.0712:79.0542:95.0491|79.0542:95.0491:134.0713|95.0492:77.0385:105.0448|95.0492:77.0385:51.023|51.023:95.0492:77.0386;134.0706:79.0534:53.0377;134.0713:79.0543:77.0386|77.0387:134.0713:79.0544|77.0387:51.0228:53.0385,106.0651;105.0448;95.04915;79.0542;77.0386;53.0381;51.023,Athens_Univ;Eawag;Eawag_Additional_Specs2;Env_Anal_Chem_U_Tuebingen,EQ279151|EQ279152|EQ279153|EQ279154|EQ279155|EQ279156|EQ279157|EQ279158|EQ279159;TUE00045|TUE00046|TUE00047,[M-H]-;[M-H]-,HCD15|HCD30|HCD45|HCD60|HCD75|HCD90|HCD120|HCD150|HCD180;NA10.0V|NA20.0V|NA40.0V,132.0568:103.0428:104.0506|132.0568:103.0428:104.0506|132.0568:103.0428:104.0506|132.0568:103.0428:104.0506|132.0568:103.0428:104.0506|132.0568:103.0428:104.0507|103.0428:50.0036:132.0568|50.0036:88.0193:63.0115|50.0036:88.0193:63.0115;132.0568:103.0427:104.0503|132.0565:103.0426:104.0504|50.0033:88.0192:63.0113,132.0568;104.0506;103.0428;88.0193;63.0115;50.0036,Eawag;Env_Anal_Chem_U_Tuebingen
stpQQR720,4-Hydroxybenzotriazole|4-Hydroxy-1H-benzotriazole,C1=CC2=C(C(=C1)O)N=NN2,135.0433,C6H5N3O,"InChI=1S/C6H5N3O/c10-5-3-1-2-4-6(5)8-9-7-4/h1-3,10H,(H,7,8,9)",CAS_RN: NA,NA,JMTMSDXUXJISAY-UHFFFAOYSA-N,10607767,DTXSID90374722,Positive/Negative,EQ290001|EQ290002|EQ290003|EQ290004|EQ290005|EQ290006|EQ290007|EQ290008|EQ290009;ETS00119;UF420101|UF420102|UF420103|UF420104,[M+H]+;[M+H]+;[M+H]+,HCD15|HCD30|HCD45|HCD60|HCD75|HCD90|HCD120|HCD150|HCD180;HCDscaled 80 (m/z=200) to 110 (m/z=120);HCD55|HCD80|CID35|CID55,136.0505:80.0494:108.0444|136.0505:80.0494:108.0443|136.0505:80.0494:108.0444|136.0506:80.0494:53.0386|80.0494:136.0506:53.0386|80.0494:136.0506:53.0386|53.0386:80.0494:63.0229|53.0386:63.0229:80.0495|63.0229:53.0386:62.0151;80.0487:136.0501:63.0221;136.0509:80.0497:108.0448|136.051:80.0497:81.0337|80.0497:136.0511:108.0445|80.0497:108.0445,108.04445;81.0337;80.0494;63.0229;62.0151;53.0386,Eawag;Eawag_Additional_Specs2;UFZ,EQ290051|EQ290052|EQ290053|EQ290054|EQ290055|EQ290056|EQ290057|EQ290058|EQ290059;UF420151|UF420152|UF420153|UF420154,[M-H]-;[M-H]-,HCD15|HCD30|HCD45|HCD60|HCD75|HCD90|HCD120|HCD150|HCD180;HCD55|HCD80|CID35|CID55,134.0361:106.0299:78.035|134.0361:106.0299:78.035|78.035:134.0361:106.0299|78.035:106.0299:105.0221|78.035:105.022:106.0299|78.035:105.022:106.0299|105.022:78.0349:50.0036|50.0036:105.022:65.9986|50.0036:65.9986:105.0219;134.036|134.0358|106.03|106.0299,134.0361;106.0299;105.022;78.035;65.9986;50.0036,Eawag;UFZ
stpQQR721,"5,6-Dimethylbenzotriazole|5,6-Dimethyl-1H-benzotriazole",CC1=CC2=C(C=C1C)N=NN2,147.07965,C8H9N3,"InChI=1S/C8H9N3/c1-5-3-7-8(4-6(5)2)10-11-9-7/h3-4H,1-2H3,(H,9,10,11)",CAS_RN: NA,NA,MVPKIPGHRNIOPT-UHFFFAOYSA-N,70242,DTXSID70881186,Positive,AU405406;ETS00120,[M+H]+;[M+H]+,CIDRAMP 16.1-24.2;HCDscaled 80 (m/z=200) to 110 (m/z=120),148.0862:93.0691:149.0891;91.0536:148.0865:93.0692,93.06915;91.0536,Athens_Univ;Eawag_Additional_Specs2,NA,NA,NA,NA,NA,NA
stpQQR722,Benzotriazole-5-carboxylic acid|1H-Benzotriazole-5-carboxylic acid,C1=CC2=C(C=C1C(=O)O)N=NN2,163.0382,C7H5N3O2,"InChI=1S/C7H5N3O2/c11-7(12)4-1-2-5-6(3-4)9-10-8-5/h1-3H,(H,11,12)(H,8,9,10)",CAS_RN: NA,NA,GUOVBFFLXKJFEE-UHFFFAOYSA-N,65749,DTXSID10881049,Positive/Negative,EQ318401|EQ318402|EQ318403|EQ318404|EQ318405|EQ318406|EQ318407|EQ318408|EQ318409;ETS00121,[M+H]+;[M+H]+,HCD15|HCD30|HCD45|HCD60|HCD75|HCD90|HCD120|HCD150|HCD180;HCDscaled 80 (m/z=200) to 110 (m/z=120),164.0453:108.0443:65.0383|164.0453:108.0443:80.0493|164.0454:108.0444:80.0494|164.0454:108.0443:80.0494|164.0454:80.0494:108.0444|80.0494:65.0386:108.0444|63.0229:65.0386:80.0494|63.0229:53.0386:65.0386|63.0229:53.0386:62.0151;80.0487:108.0436:65.0377,108.0443;80.0494;65.0386;63.0229;62.0151;53.0386,Eawag;Eawag_Additional_Specs2,EQ318451|EQ318452|EQ318453|EQ318454|EQ318455|EQ318456|EQ318457|EQ318458|EQ318459,[M-H]-,HCD15|HCD30|HCD45|HCD60|HCD75|HCD90|HCD120|HCD150|HCD180,162.0309:118.0411:90.0349|162.0309:118.0411:90.0348|118.0411:162.031:90.0349|118.0411:90.0349:162.031|118.0411:90.0349:162.0309|118.0411:90.0349:50.0036|50.0036:90.0349:118.0412|50.0036:90.0349:64.0193|50.0036:90.0349:64.0193,162.0309;118.0411;90.0349;64.0193;50.0036,Eawag
stpQQR723,"5-Hydroxy-1,2,3-triazole|1H-1,2,3-triazol-5-ol",OC1=CN=NN1,85.0276,C2H3N3O,"InChI=1S/C2H3N3O/c6-2-1-3-5-4-2/h1H,(H2,3,4,5,6)",CAS_RN: NA,NA,QEASJVYPHMYPJM-UHFFFAOYSA-N,NA,DTXSID50591478,Positive/Negative,EQ318601|EQ318602|EQ318603|EQ318604|EQ318605|EQ318606;ETS00122,[M+H]+;[M+H]+,HCD15|HCD30|HCD45|HCD60|HCD75|HCD90;HCDscaled 80 (m/z=200) to 110 (m/z=120),86.0348:57.0211:58.0401|86.0348:57.0211:58.0401|86.0348:57.0211:58.0401|86.0348:57.0211:58.0402|86.0348:57.0211:58.0402|86.0349:57.0211:58.0401;86.0344:57.0202,58.0401;57.0211,Eawag;Eawag_Additional_Specs2,EQ318651|EQ318652|EQ318653|EQ318654|EQ318655|EQ318656,[M-H]-,HCD15|HCD30|HCD45|HCD60|HCD75|HCD90,84.0203:66.0096|84.0203:66.0097|84.0203:66.0097|84.0203:66.0097|84.0203:66.0097|84.0203:66.0097,84.0203;66.0097,Eawag
stpQQR724,"Flucofuron|N,N'-Bis[4-chloro-3-(trifluoromethyl)phenyl]urea",C1=CC(=C(C=C1NC(=O)NC2=CC(=C(C=C2)Cl)C(F)(F)F)C(F)(F)F)Cl,415.99179,C15H8Cl2F6N2O,"InChI=1S/C15H8Cl2F6N2O/c16-11-3-1-7(5-9(11)14(18,19)20)24-13(26)25-8-2-4-12(17)10(6-8)15(21,22)23/h1-6H,(H2,24,25,26)",CAS_RN: NA,NA,ABOVRDBEJDIBMZ-UHFFFAOYSA-N,61106,DTXSID50891521,Negative,NA,NA,NA,NA,NA,NA,ETS00123,[M-H]-,HCDscaled by m/z,193.9988:414.9843,414.9843;193.9988,Eawag_Additional_Specs2
stpQQR725,"Hexachlorophene|2,2'-methylenebis(3,4,6-trichlorophenol)",C1=C(C(=C(C(=C1Cl)Cl)CC2=C(C(=CC(=C2Cl)Cl)Cl)O)O)Cl,403.84988,C13H6Cl6O2,"InChI=1S/C13H6Cl6O2/c14-6-2-8(16)12(20)4(10(6)18)1-5-11(19)7(15)3-9(17)13(5)21/h2-3,20-21H,1H2",CAS_RN: NA,NA,ACGUYXCXAPNIKK-UHFFFAOYSA-N,3472,DTXSID6020690,Negative,NA,NA,NA,NA,NA,NA,SM835553;ETS00124,[M-H]-;[M-H]-,HCD35;HCDscaled by m/z,402.8425:194.9176:366.8657;194.9175:366.8653:302.894,402.8425;366.8655;302.894;194.91755,CASMI_2016;Eawag_Additional_Specs2
stpQQR726,"Lufenuron|N-{[2,5-Dichloro-4-(1,1,2,3,3,3-hexafluoropropoxy)phenyl]carbamoyl}-2,6-difluorobenzamide|1-(2,5-dichloro-4-(1,1,2,3,3,3-hexafluoropropoxy)phenyl)-3-(2,6-difluorobenzoyl)urea",C1=CC(=C(C(=C1)F)C(=O)NC(=O)NC2=CC(=C(C=C2Cl)OC(C(C(F)(F)F)F)(F)F)Cl)F,403.84988,C17H8Cl2F8N2O3,"InChI=1S/C17H8Cl2F8N2O3/c18-6-5-11(32-17(26,27)14(22)16(23,24)25)7(19)4-10(6)28-15(31)29-13(30)12-8(20)2-1-3-9(12)21/h1-5,14H,(H2,28,29,30,31)",CAS_RN: NA,NA,PWPJGUXAGUPAHP-UHFFFAOYSA-N,64813,DTXSID5034357,Negative,NA,NA,NA,NA,NA,NA,ETS00125,[M-H]-,HCD15,508.9704:338.9733:488.9636,338.9733,Eawag_Additional_Specs2
stpQQR727,Chlorophene|2-Benzyl-4-chlorophenol|4-chloro-2-(phenylmethyl)phenol,C1=CC=C(C=C1)CC2=C(C=CC(=C2)Cl)O,218.04985,C13H11ClO,"InChI=1S/C13H11ClO/c14-12-6-7-13(15)11(9-12)8-10-4-2-1-3-5-10/h1-7,9,15H,8H2",CAS_RN: NA,NA,NCKMMSIFQUPKCK-UHFFFAOYSA-N,8118,DTXSID5020154,Negative,NA,NA,NA,NA,NA,NA,SM814053;SM863453;ETS00126;UF423051|UF423052|UF423053|UF423054,[M-H]-;[M-H]-;[M-H]-;[M-H]-,HCD35;HCD35;HCD70;HCD55|HCD80|CID35|CID55,217.0427:181.0661;217.0426:181.066:153.0709;217.0431:113.1747;217.0424|217.0425|217.0424:181.0658:153.0708|181.0659:153.0707:180.0578,217.04255;181.06595;180.0578;153.0708;113.1747,CASMI_2016;CASMI_2016;Eawag_Additional_Specs2;UFZ
stpQQR728,Fenazaquin|4-[2-(4-tert-Butylphenyl)ethoxy]quinazoline|4-{2-[4-(2-Methyl-2-propanyl)phenyl]ethoxy}quinazoline,CC(C)(C)C1=CC=C(C=C1)CCOC2=NC=NC3=CC=CC=C32,306.1732,C20H22N2O,"InChI=1S/C20H22N2O/c1-20(2,3)16-10-8-15(9-11-16)12-13-23-19-17-6-4-5-7-18(17)21-14-22-19/h4-11,14H,12-13H2,1-3H3",CAS_RN: NA,NA,DMYHGDXADUDKCQ-UHFFFAOYSA-N,77874,DTXSID4040476,Positive,ETS00127,[M+H]+,HCD30,307.1804:161.1322:57.0691,161.1322;57.0691,Eawag_Additional_Specs2,NA,NA,NA,NA,NA,NA
stpQQR729,Flunarizine|(E)-1-[Bis(p-fluorophenyl)-methyl]-4-cinnamylpiperazine|1-[Bis(4-fluorophenyl)methyl]-4-[(2E)-3-phenyl-2-propen-1-yl]piperazine,C1CN(CCN1C/C=C/C2=CC=CC=C2)C(C3=CC=C(C=C3)F)C4=CC=C(C=C4)F,404.20639,C26H26F2N2,"InChI=1S/C26H26F2N2/c27-24-12-8-22(9-13-24)26(23-10-14-25(28)15-11-23)30-19-17-29(18-20-30)16-4-7-21-5-2-1-3-6-21/h1-15,26H,16-20H2/b7-4+",CAS_RN: NA,NA,SMANXXCATUTDDT-QPJJXVBHSA-N,819216,DTXSID6045616,Positive,ETS00128,[M+H]+,HCD15,203.0666:405.2135:201.1386,203.0666;201.1386,Eawag_Additional_Specs2,NA,NA,NA,NA,NA,NA