NORMAN_ID,NAME,SMILES,NEUTRAL_EXACT_MASS,FORMULA,StdInChI,CAS_RN,PUBCHEM_CID,InChIKey,CHEMSPIDER_ID,DTXSID,Preferable Ionization,MB_Records Positive Ionization,Adduct Positive Ionization,Ionisation type and collision energy Positive Ionization,Fragments Positive Ionization,Simplified_fragments_Positive,Institute Positive Ionization,MB_Records Negative Ionization,Adduct Negative Ionization,Ionisation type and collision energy Negative Ionization,Fragments Negative Ionization,Simplified_fragments_Negative,Institute Negative Ionization
stpQQR791,Atenolol|2-[4-[2-hydroxy-3-(isopropylamino)propoxy]phenyl]acetamide,CC(C)NCC(O)COc1ccc(cc1)CC(N)=O,266.163,C14H22N2O3,"InChI=1S/C14H22N2O3/c1-10(2)16-8-12(17)9-19-13-5-3-11(4-6-13)7-14(15)18/h3-6,10,12,16-17H,7-9H2,1-2H3,(H2,15,18)",CAS_RN: 29122-68-7,2249,METKIMKYRPQLGS-UHFFFAOYSA-N,2162,DTXSID2022628,Positive,AU110601|AU110602|AU110603|AU110604|AU110605;EA016901|EA016902|EA016903|EA016904|EA016905|EA016906|EA016907|EA016908|EA016909|EA016910|EA016911|EA016912|EA016913|EA016914;TUE00081|TUE00082|TUE00083;UF407601|UF407602|UF407603|UF407604,[M+H]+;[M+H]+;[M+H]+;[M+H]+,CID20.4-30.6|CID20|CID30|CID40|CID50;CID35|HCD15|HCD30|HCD45|HCD60|HCD75|HCD90|HCD15|HCD30|HCD45|HCD60|HCD75|HCD90|CID35;NA10.0V|NA20.0V|NA40.0V;HCD55|HCD80|CID35|CID55,267.1709:74.0597:190.0866|267.1703:190.0857:225.123|145.0637:190.0853:178.0853|145.0638:146.067:134.0593|145.0636:117.0685:134.0599;225.1234:190.0863:208.0968|267.1704|267.1705:225.1229:190.086|267.1703:190.0862:145.0648|145.0647:74.06:190.086|145.0647:133.0648:74.06|145.0647:133.0648:107.0491|267.1703|267.1706:225.1234:190.0862|267.1704:190.0862:145.0648|145.0648:74.06:190.0862|145.0647:133.0647:74.06|145.0647:133.0647:107.0491|225.1234:190.0863:208.0968;267.1709:190.0864:225.1237|267.1709:74.0603:190.0865|56.0495:145.0648:74.0603;145.0649:190.0865:74.06|145.0649:133.0649:74.0601|190.0866:225.1238:208.0972|190.0865:225.1237:208.0972,225.1234;208.097;190.08625;178.0853;146.067;145.0647;134.0596;133.0648;117.0685;107.0491;74.06;56.0495,Athens_Univ;Eawag;Env_Anal_Chem_U_Tuebingen;UFZ,NA,NA,NA,NA,NA,NA
stpQQR792,Sotalol|N-[4-[1-hydroxy-2-(isopropylamino)ethyl]phenyl]methanesulfonamide,CC(C)NCC(C1=CC=C(C=C1)NS(=O)(=O)C)O,272.1195,C12H20N2O3S,"InChI=1S/C12H20N2O3S/c1-9(2)13-8-12(15)10-4-6-11(7-5-10)14-18(3,16)17/h4-7,9,12-15H,8H2,1-3H3",CAS_RN: 3930-20-9,5253,ZBMZVLHSJCTVON-UHFFFAOYSA-N,5063,DTXSID0023589,Positive/Negative,EA017001|EA017002|EA017003|EA017004|EA017005|EA017006|EA017007|EA017008|EA017009|EA017010|EA017011|EA017012|EA017013|EA017014;TUE00651|TUE00652|TUE00653,[M+H]+;[M+H]+,CID35|HCD15|HCD30|HCD45|HCD60|HCD75|HCD90|HCD15|HCD30|HCD45|HCD60|HCD75|HCD90|CID35;NA10.0V|NA20.0V|NA40.0V,255.1164:176.1302:213.0702|255.1166:273.1272:213.0688|255.1164:213.0694:176.1308|213.0693:133.076:255.1161|133.0761:134.0839:213.0693|133.0761:106.0652:134.0839|133.0761:106.0652:107.073|255.1164:273.1269:213.0687|255.1162:213.0693:176.1307|213.0693:133.076:255.1162|133.0761:134.0839:213.0693|133.0761:106.0652:134.0838|133.0761:106.0652:107.073|255.1164:213.0689:176.1301;255.1165:213.0694:273.1271|213.0695:133.076:255.1165|133.076:106.0652:107.0729,255.1164;213.0693;176.13045;134.0839;133.0761;107.073;106.0652,Eawag;Env_Anal_Chem_U_Tuebingen,EA017051|EA017052|EA017053|EA017054|EA017058|EA017059|EA017060|EA017064,[M-H]-,CID35|HCD15|HCD30|HCD45|HCD15|HCD30|HCD45|CID35,253.1013:210.0464:174.1162|271.1123|271.1117:253.1028|253.1009:174.1166|271.1116|271.1118|174.1156|253.1015:210.0468:174.1159,271.11175;253.1014;210.0466;174.11605,Eawag
stpQQR793,Propranolol|1-(1-naphthalenyloxy)-3-(propan-2-ylamino)-2-propanol,CC(C)NCC(COC1=CC=CC2=CC=CC=C21)O,259.1572,C16H21NO2,"InChI=1S/C16H21NO2/c1-12(2)17-10-14(18)11-19-16-9-5-7-13-6-3-4-8-15(13)16/h3-9,12,14,17-18H,10-11H2,1-2H3",CAS_RN: 525-66-6,4946,AQHHHDLHHXJYJD-UHFFFAOYSA-N,4777,DTXSID6023525,Positive,AU110801;SM855601;EA017101|EA017102|EA017103|EA017104|EA017105|EA017106|EA017107|EA017108|EA017109|EA017110|EA017111|EA017112|EA017113|EA017114,[M+H]+;[M+H]+;[M+H]+,CID20.2-30.2;HCD35;CID35|HCD15|HCD30|HCD45|HCD60|HCD75|HCD90|HCD15|HCD30|HCD45|HCD60|HCD75|HCD90|CID35,260.1659:74.0597:72.0803;260.1645:116.107:183.0805;183.0805:116.107:157.0647|260.1646:116.1068|260.1647:116.1069:183.0803|116.1069:183.0803:260.1645|155.0855:116.1069:74.0601|155.0855:74.06:129.0698|155.0603:129.0698:74.0601|260.1646:116.1068|260.1647:116.107:183.0804|116.1069:183.0803:260.1639|155.0854:74.06:116.1069|155.0854:74.06:129.0697|129.0698:155.0602:56.0494|183.0804:116.107:157.0648,183.0804;157.06475;155.08545;155.06025;129.0698;116.1069;74.06;72.0803;56.0494,Athens_Univ;CASMI_2016;Eawag,NA,NA,NA,NA,NA,NA
stpQQR794,Metoprolol|1-(isopropylamino)-3-[4-(2-methoxyethyl)phenoxy]propan-2-ol,COCCC1=CC=C(OCC(O)CNC(C)C)C=C1,267.1834,C15H25NO3,"InChI=1S/C15H25NO3/c1-12(2)16-10-14(17)11-19-15-6-4-13(5-7-15)8-9-18-3/h4-7,12,14,16-17H,8-11H2,1-3H3",CAS_RN: 37350-58-6,4171,IUBSYMUCCVWXPE-UHFFFAOYSA-N,4027,DTXSID2023309,Positive,AU110701;EA017201|EA017202|EA017203|EA017204|EA017205|EA017206|EA017207|EA017208|EA017209|EA017210|EA017211|EA017212|EA017213|EA017214;TUE00531|TUE00532|TUE00533;UF407201|UF407202|UF407203|UF407204,[M+H]+;[M+H]+;[M+H]+;[M+H]+,CID20.5-30.7;CID35|HCD15|HCD30|HCD45|HCD60|HCD75|HCD90|HCD15|HCD30|HCD45|HCD60|HCD75|HCD90|CID35;NA10.0V|NA20.0V|NA40.0V;HCD55|HCD80|CID35|CID55,268.1923:74.0597:72.0804;191.1067:116.107:218.1538|268.191|268.1904:116.107:191.1069|268.1904:116.107:74.0601|133.0647:74.06:121.0647|133.0649:121.0648:74.06|103.0542:105.0698:121.0647|268.1909|268.191:116.107:191.1066|268.1908:116.1071:74.0601|133.0648:74.0601:121.0648|133.0648:121.0648:105.0699|103.0542:105.0699:91.0542|191.1067:116.107:218.1539;268.1912:116.107:72.0807|268.1911:74.0602:72.0808|56.0495:74.0602:103.0543;133.0649:116.1071:121.0649|103.0543:105.0699:121.0648|268.1911:191.1069:116.1071|191.1069:116.1071:159.0806,218.15385;191.1068;159.0806;133.0648;121.0648;116.107;105.0699;103.05425;91.0542;74.0601;72.0807;56.0495,Athens_Univ;Eawag;Env_Anal_Chem_U_Tuebingen;UFZ,NA,NA,NA,NA,NA,NA
stpQQR795,Sulfadiazine|4-amino-N-(2-pyrimidinyl)benzenesulfonamide,NC1=CC=C(C=C1)S(=O)(=O)NC2=NC=CC=N2,250.0524,C10H10N4O2S,"InChI=1S/C10H10N4O2S/c11-8-2-4-9(5-3-8)17(15,16)14-10-12-6-1-7-13-10/h1-7H,11H2,(H,12,13,14)",CAS_RN: 68-35-9,5215,SEEPANYCNGTZFQ-UHFFFAOYSA-N,5026,DTXSID7044130,Positive,AU101101|AU101102|AU101103|AU101104;EA017901|EA017902|EA017903|EA017904|EA017905|EA017906|EA017907|EA017908|EA017909|EA017910|EA017911|EA017912|EA017913|EA017914,[M+H]+;[M+H]+,CID10|CID20|CID30|CID40;CID35|HCD15|HCD30|HCD45|HCD60|HCD75|HCD90|HCD15|HCD30|HCD45|HCD60|HCD75|HCD90|CID35,251.0596:156.0106:252.0616|156.0108:251.0607:176.0121|156.011:185.0823:176.013|185.0824:156.0113;156.0114:108.0443:92.0494|251.0597:156.0111:92.0493|251.0595:156.0113:108.0443|156.0113:108.0444:92.0495|108.0443:92.0494:96.0556|108.0443:92.0494:65.0385|92.0494:108.0443:65.0385|251.0597:156.0111:108.0441|251.0596:156.0114:108.0444|156.0114:108.0444:92.0495|108.0444:92.0494:96.0556|108.0444:92.0495:65.0386|92.0495:108.0443:65.0386|156.0114:108.0444:92.0494,185.08235;176.01255;156.0113;108.0443;96.0556;92.0494;65.03855,Athens_Univ;Eawag,NA,NA,NA,NA,NA,NA
stpQQR796,"Sulfamethazine|4-amino-N-(4,6-dimethylpyrimidin-2-yl)benzenesulfonamide|4-amino-N-(4,6-dimethyl-2-pyrimidinyl)benzenesulfonamide",c1(S(Nc2nc(cc(n2)C)C)(=O)=O)ccc(N)cc1,278.0837,C12H14N4O2S,"InChI=1S/C12H14N4O2S/c1-8-7-9(2)15-12(14-8)16-19(17,18)11-5-3-10(13)4-6-11/h3-7H,13H2,1-2H3,(H,14,15,16)",CAS_RN: 57-68-1,5327,ASWVTGNCAZCNNR-UHFFFAOYSA-N,5136,DTXSID6021290,Positive,AU100801|AU100802|AU100803|AU100804|AU100805|AU100806;SM850301;EA018101|EA018102|EA018103|EA018104|EA018105|EA018106|EA018107|EA018108|EA018109|EA018110|EA018111|EA018112|EA018113|EA018114;UF409901|UF409902|UF409903|UF409904|UF409935|UF409936,[M+H]+;[M+H]+;[M+H]+;[M+H]+,CID20.8-31.3|CID20|CID30|CID40|CID50|CID10;HCD35;CID35|HCD15|HCD30|HCD45|HCD60|HCD75|HCD90|HCD15|HCD30|HCD45|HCD60|HCD75|HCD90|CID35;HCD55|HCD80|CID35|CID55|CID35|CID55,204.0445:156.0117:124.0872|204.0431:279.0909:156.0104|124.0861:204.0429:156.0106|124.0862:213.1121:204.0427|124.0859:213.1122:125.0891|279.0908:156.0098:186.0319;279.091:204.0437:124.0869;186.0333:204.0437:124.0869|279.0911:186.0342:149.0238|279.091:186.0332:204.0438|124.0869:186.033:156.0113|124.0869:108.0444:92.0495|124.0869:108.0444:92.0495|124.0869:108.0443:92.0494|279.0911:186.0338:149.0233|279.091:186.0331:124.0869|124.087:186.0332:108.0444|124.0869:108.0444:92.0495|124.0869:108.0444:92.0495|124.0869:92.0495:108.0444|186.0333:204.0437:124.0869;124.087:108.0444:92.0495|124.087:92.0495:108.0445|186.0334:279.0913:204.044|186.0333:204.044:124.0871|208.0176:146.0687:127.0059|208.0176:146.0687:226.0282,226.0282;213.11215;208.0176;204.0437;186.0333;156.0106;149.02355;146.0687;127.0059;125.0891;124.0869;108.0444;92.0495,Athens_Univ;CASMI_2016;Eawag;UFZ,NA,NA,NA,NA,NA,NA
stpQQR797,"Sulfadimethoxine|4-amino-N-(2,6-dimethoxy-4-pyrimidinyl)benzenesulfonamide",c1(NS(c2ccc(N)cc2)(=O)=O)cc(nc(n1)OC)OC,310.0736,C12H14N4O4S,"InChI=1S/C12H14N4O4S/c1-19-11-7-10(14-12(15-11)20-2)16-21(17,18)9-5-3-8(13)4-6-9/h3-7H,13H2,1-2H3,(H,14,15,16)",CAS_RN: 122-11-2,5323,ZZORFUFYDOWNEF-UHFFFAOYSA-N,5132,DTXSID1023607,Positive/Negative,AU100902|AU100903|AU100904|AU100905;SM854202;EA018301|EA018302|EA018303|EA018304|EA018305|EA018306|EA018307|EA018308|EA018309|EA018310|EA018311|EA018312|EA018313|EA018314,[M+H]+;[M+H]+;[M+H]+,CID20|CID30|CID40|CID50;HCD35;CID35|HCD15|HCD30|HCD45|HCD60|HCD75|HCD90|HCD15|HCD30|HCD45|HCD60|HCD75|HCD90|CID35,156.0107:311.0811:156.0763|156.0105:156.0762:154.0604|154.0604:140.045:156.0761|154.0606:141.0521:140.045;311.0808:156.0767:156.0113;245.1032:156.0768:156.0114|311.0811:156.0117|311.0809:156.0768:156.0114|156.0768:156.0113:108.0444|156.0768:108.0444:92.0495|108.0444:92.0495:156.0767|108.0444:92.0495:65.0386|311.0808:156.0773:108.0443|311.0807:156.0766:156.0113|156.0767:156.0113:108.0443|156.0767:108.0443:92.0494|108.0444:92.0494:156.0766|92.0494:108.0443:65.0385|156.0767:245.1031:156.0113,245.10315;156.0767;156.0113;154.0604;141.0521;140.045;108.0444;92.04945;65.03855,Athens_Univ;CASMI_2016;Eawag,SM854253;EA018351|EA018352|EA018353|EA018354|EA018355|EA018356|EA018357|EA018358|EA018359|EA018360|EA018361|EA018362|EA018363|EA018364,[M-H]-;[M-H]-,HCD35;CID35|HCD15|HCD30|HCD45|HCD60|HCD75|HCD90|HCD15|HCD30|HCD45|HCD60|HCD75|HCD90|CID35,309.0664:154.0621:213.079;195.0234:230.0807:229.0728|309.0664|309.066:230.0804:195.0234|309.0662:66.0098:230.0807|66.0098:122.0358:154.062|66.0098:122.036:139.0385|66.0099:122.0359:139.0386|309.0661|309.066:230.0804|309.0661:66.0098:230.081|66.0098:122.0359:154.062|66.0098:122.0359:139.0385|66.0098:139.0384:131.0611|195.0232:230.0805:215.0572,309.0661;230.0806;229.0728;215.0572;213.079;195.0234;154.062;139.0385;131.0611;122.0359;66.0098,CASMI_2016;Eawag
stpQQR798,"Sulfathiazole|4-Amino-N-2-thiazolylbenzenesulfonamide|4-amino-N-(1,3-thiazol-2-yl)benzenesulfonamide",c1(S(Nc2nccs2)(=O)=O)ccc(N)cc1,255.0136,C9H9N3O2S2,"InChI=1S/C9H9N3O2S2/c10-7-1-3-8(4-2-7)16(13,14)12-9-11-5-6-15-9/h1-6H,10H2,(H,11,12)",CAS_RN: 72-14-0,5340,JNMRHUJNCSQMMB-UHFFFAOYSA-N,5148,DTXSID8026068,Positive/Negative,AU102301;EA018501|EA018502|EA018503|EA018504|EA018505|EA018506|EA018507|EA018508|EA018509|EA018510|EA018511|EA018512|EA018513|EA018514,[M+H]+;[M+H]+,CID20.0-30.0;CID35|HCD15|HCD30|HCD45|HCD60|HCD75|HCD90|HCD15|HCD30|HCD45|HCD60|HCD75|HCD90|CID35,156.0113:108.0455:256.0209;156.0115:108.0444:92.0495|256.0209:156.0112:108.0444|156.0113:256.0206:108.0443|156.0114:108.0444:92.0495|108.0444:92.0495:156.0113|92.0495:108.0444:65.0386|92.0495:108.0444:65.0386|256.021:156.0113:108.0443|156.0114:256.0208:108.0444|156.0114:108.0444:92.0495|108.0444:92.0495:156.0113|92.0495:108.0444:65.0386|92.0495:108.0444:65.0386|156.0114:108.0444:92.0494,156.0113;108.0444;92.0495;65.0386,Athens_Univ;Eawag,EA018551|EA018552|EA018553|EA018554|EA018555|EA018556|EA018557|EA018558|EA018559|EA018560|EA018561|EA018562|EA018563|EA018564,[M-H]-,CID35|HCD15|HCD30|HCD45|HCD60|HCD75|HCD90|HCD15|HCD30|HCD45|HCD60|HCD75|HCD90|CID35,156.0127:97.9944:190.0444|254.0062:156.0123|156.0125:254.0059:97.9943|156.0126:97.9943:92.0504|156.0127:97.9945:92.0505|97.9944:63.9625:92.0503|97.9944:63.9624:65.0146|254.0061:156.0125|156.0125:254.0062:97.9941|156.0125:97.9942:63.9623|156.0126:97.9942:63.9625|97.9941:63.9625:156.0126|97.9942:63.9625:65.0145|156.0127:97.9943:190.0443,254.00615;190.04435;156.0126;97.9943;92.0504;65.01455;63.9625,Eawag
stpQQR799,"Tylosin|2-[(4R,5S,6S,7R,9R,11E,13E,15R,16R)-15-[[(2R,3R,4R,5R,6R)-3,4-dimethoxy-6-methyl-5-oxidanyl-oxan-2-yl]oxymethyl]-6-[(2R,3R,4R,5S,6R)-4-(dimethylamino)-5-[(2S,4R,5S,6S)-4,6-dimethyl-4,5-bis(oxidanyl)oxan-2-yl]oxy-6-methyl-3-oxidanyl-oxan-2-yl]oxy-16-ethyl-5,9,13-trimethyl-4-oxidanyl-2,10-bis(oxidanylidene)-1-oxacyclohexadeca-11,13-dien-7-yl]ethanal",CCC1C(C=C(C=CC(=O)C(CC(C(C(C(CC(=O)O1)O)C)OC2C(C(C(C(O2)C)OC3CC(C(C(O3)C)O)(C)O)N(C)C)O)CC=O)C)C)COC4C(C(C(C(O4)C)O)OC)OC,915.5191,C46H77NO17,"InChI=1S/C46H77NO17/c1-13-33-30(22-58-45-42(57-12)41(56-11)37(52)26(5)60-45)18-23(2)14-15-31(49)24(3)19-29(16-17-48)39(25(4)32(50)20-34(51)62-33)64-44-38(53)36(47(9)10)40(27(6)61-44)63-35-21-46(8,55)43(54)28(7)59-35/h14-15,17-18,24-30,32-33,35-45,50,52-55H,13,16,19-22H2,1-12H3/b15-14+,23-18+/t24-,25+,26-,27-,28+,29+,30-,32-,33-,35+,36-,37-,38-,39-,40-,41-,42-,43+,44+,45-,46-/m1/s1",CAS_RN: 1401-69-0,5280440,WBPYTXDJUQJLPQ-VMXQISHHSA-N,4444097,NA,Positive,AU105701|AU105702|AU105703|AU105704|AU105705|AU105706;EA018701|EA018702|EA018703|EA018704|EA018705|EA018706|EA018707|EA018708|EA018709|EA018710|EA018711|EA018712|EA018713|EA018714,[M+H]+;[M+H]+,CID10|CID20|CID30|CID40|CID34.3-51.4|CID50;CID35|HCD15|HCD30|HCD45|HCD60|HCD75|HCD90|HCD15|HCD30|HCD45|HCD60|HCD75|HCD90|CID35,916.5356:917.5472|916.5383:917.5427:174.1135|916.5393:917.5431:174.1134|174.1143:916.5382:772.4577|174.1126:175.1151:916.5382|174.1145:175.1173:145.0871;772.4476:754.4355|916.5266|174.1124:83.0491:156.1018|174.1122:83.0491:88.0756|88.0757:83.0491:98.0967|83.049:88.0757:116.0703|83.0491:88.0758|916.5272|174.1124:83.0491:101.0597|174.1124:83.0491:88.0757|83.0491:88.0756:114.0914|83.0491:88.0756:352.9885|83.0491:88.0757:549.5605|772.4473:754.4348:549.5612,772.4577;772.44745;754.43515;549.56085;352.9885;175.1162;174.1126;156.1018;145.0871;116.0703;114.0914;101.0597;98.0967;88.0757;83.0491,Athens_Univ;Eawag,NA,NA,NA,NA,NA,NA
stpQQR800,"Erythromycin|Abboticin|6-[4-(dimethylamino)-3-hydroxy-6-methyl-tetrahydropyran-2-yl]oxy-14-ethyl-7,12,13-trihydroxy-4-(5-hydroxy-4-methoxy-4,6-dimethyl-tetrahydropyran-2-yl)oxy-3,5,7,9,11,13-hexamethyl-oxacyclotetradecane-2,10-quinone",CC[C@@H]1[C@@]([C@@H]([C@H](C(=O)[C@@H](C[C@@]([C@@H]([C@H]([C@@H]([C@H](C(=O)O1)C)O[C@H]2C[C@@]([C@H]([C@@H](O2)C)O)(C)OC)C)O[C@H]3[C@@H]([C@H](C[C@H](O3)C)N(C)C)O)(C)O)C)C)O)(C)O,733.4612,C37H67NO13,"InChI=1S/C37H67NO13/c1-14-25-37(10,45)30(41)20(4)27(39)18(2)16-35(8,44)32(51-34-28(40)24(38(11)12)15-19(3)47-34)21(5)29(22(6)33(43)49-25)50-26-17-36(9,46-13)31(42)23(7)48-26/h18-26,28-32,34,40-42,44-45H,14-17H2,1-13H3/t18-,19-,20+,21+,22-,23+,24+,25-,26+,28-,29+,30-,31+,32-,34+,35-,36-,37-/m1/s1",CAS_RN: 114-07-8,12560,ULGZDMOVFRHVEP-RWJQBGPGSA-N,12041,DTXSID4022991,Positive,AU105402|AU105403|AU105404|AU105405;EA018901|EA018902|EA018903|EA018904|EA018905|EA018906|EA018907|EA018908|EA018909|EA018910|EA018911|EA018912|EA018913|EA018914,[M+H]+;[M+H]+,CID20|CID30|CID40|CID50;CID35|HCD15|HCD30|HCD45|HCD60|HCD75|HCD90|HCD15|HCD30|HCD45|HCD60|HCD75|HCD90|CID35,158.1168:734.4703:576.3847|158.1167:576.3735|158.1176:159.1204|158.118;576.3749:522.3428:716.4581|734.4682:158.1176|158.1176:83.0491:116.1068|83.0491:158.1173:116.1074|83.0492|83.0491|83.0491|734.4677:158.1178|158.1175:83.0491:116.1071|83.0491:158.1174:116.1068|83.0491:116.0704:116.1074|83.0491:72.0806|83.0491|576.3738:522.3419:716.4577,716.4579;576.37435;522.34235;159.1204;158.11755;116.1071;116.0704;83.0491;72.0806,Athens_Univ;Eawag,NA,NA,NA,NA,NA,NA
stpQQR801,"Azithromycin|(2R,3S,4R,5R,8R,10R,11R,13S,14R)-11-[(2S,3R,4S,6R)-4-(dimethylamino)-3-hydroxy-6-methyloxan-2-yl]oxy-2-ethyl-3,4,10-trihydroxy-13-[(2R,4R,5S,6S)-5-hydroxy-4-methoxy-4,6-dimethyloxan-2-yl]oxy-3,5,6,8,10,12,14-heptamethyl-1-oxa-6-azacyclopentadecan-15-one",CC[C@H]1OC(=O)[C@H](C)[C@@H](O[C@H]2C[C@@](C)(OC)[C@@H](O)[C@H](C)O2)C(C)[C@@H](O[C@@H]3O[C@H](C)C[C@@H]([C@H]3O)N(C)C)[C@](C)(O)C[C@@H](C)CN(C)[C@H](C)[C@@H](O)[C@]1(C)O,748.5085,C38H72N2O12,"InChI=1S/C38H72N2O12/c1-15-27-38(10,46)31(42)24(6)40(13)19-20(2)17-36(8,45)33(52-35-29(41)26(39(11)12)16-21(3)48-35)22(4)30(23(5)34(44)50-27)51-28-18-37(9,47-14)32(43)25(7)49-28/h20-33,35,41-43,45-46H,15-19H2,1-14H3/t20-,21-,22?,23-,24-,25+,26+,27-,28+,29-,30+,31-,32+,33-,35+,36-,37-,38-/m1/s1",CAS_RN: 83905-01-5,55185,MQTOSJVFKKJCRP-OHJWJPDZSA-N,49833,NA,Positive,EA019001|EA019002|EA019003|EA019004|EA019005|EA019006|EA019007|EA019008|EA019009|EA019010|EA019011|EA019012|EA019013|EA019014,[M+H]+,CID35|HCD15|HCD30|HCD45|HCD60|HCD75|HCD90|HCD15|HCD30|HCD45|HCD60|HCD75|HCD90|CID35,591.4207:573.4099:434.3103|749.5148:375.2698|158.1172:83.049:116.1068|83.0491:158.1174:116.1069|83.049:72.0807:116.1068|83.0491:72.0807:98.0964|83.049:72.0807:98.0963|749.5152:558.5748|158.1173:83.0491:116.1068|83.0491:158.1174:116.1069|83.049:72.0807:116.1068|83.0491:72.0807:98.0963|83.049:72.0807:98.0963|591.4215:573.41:434.3105,591.4211;573.40995;558.5748;434.3104;375.2698;158.11735;116.1068;98.0963;83.04905;72.0807,Eawag,NA,NA,NA,NA,NA,NA
stpQQR802,"Clarithromycin|6-O-Methylerythromycin|(3R,4S,5S,6R,7R,9R,11R,12R,13S,14R)-6-[4-(dimethylamino)-3-hydroxy-6-methyl-tetrahydropyran-2-yl]oxy-14-ethyl-12,13-dihydroxy-4-(5-hydroxy-4-methoxy-4,6-dimethyl-tetrahydropyran-2-yl)oxy-7-methoxy-3,5,7,9,11,13-hexamethyl-oxacyclotetradecane-2,10-quinone",CC[C@H]1OC(=O)[C@H](C)[C@@H](OC2CC(C)(OC)C(O)C(C)O2)[C@H](C)[C@@H](OC3OC(C)CC(C3O)N(C)C)[C@@](C)(C[C@@H](C)C(=O)[C@H](C)[C@@H](O)[C@]1(C)O)OC,747.4769,C38H69NO13,"InChI=1S/C38H69NO13/c1-15-26-38(10,45)31(42)21(4)28(40)19(2)17-37(9,47-14)33(52-35-29(41)25(39(11)12)16-20(3)48-35)22(5)30(23(6)34(44)50-26)51-27-18-36(8,46-13)32(43)24(7)49-27/h19-27,29-33,35,41-43,45H,15-18H2,1-14H3/t19-,20?,21+,22+,23-,24?,25?,26-,27?,29?,30+,31-,32?,33-,35?,36?,37-,38-/m1/s1",CAS_RN: 81103-11-9,84029,AGOYDEPGAOXOCK-AVDMLEEESA-N,10342604,NA,Positive,EA019101|EA019102|EA019103|EA019104|EA019105|EA019106|EA019107|EA019108|EA019109|EA019110|EA019111|EA019112|EA019113|EA019114,[M+H]+,CID35|HCD15|HCD30|HCD45|HCD60|HCD75|HCD90|HCD15|HCD30|HCD45|HCD60|HCD75|HCD90|CID35,590.3894:558.3627:716.4559|158.1176:748.4846:590.3906|158.1176:83.0492:116.1069|83.0491:158.1175:116.0706|83.0491:72.0807:98.0963|83.0491:72.0807:98.0964|83.0492:72.0808:98.0965|158.1175:748.4845:590.3893|158.1176:83.0491:116.1069|83.0492:158.1175:116.0706|83.0492:72.0808:98.0964|83.0491:72.0808:98.0964|83.0491:72.0807:98.0964|590.3896:558.3629:716.4578,716.45685;590.3895;558.3628;158.11755;116.1069;116.0706;98.0964;83.0491;72.08075,Eawag,NA,NA,NA,NA,NA,NA